ITEM: TIMESTEP
0
ITEM: NUMBER OF ATOMS
1536
ITEM: BOX BOUNDS pp pp pp
0.0000000000000000e+00 2.1105598636581512e+01
0.0000000000000000e+00 2.1105598636581512e+01
0.0000000000000000e+00 1.2663359181948998e+02
ITEM: ATOMS id type x y z fx fy fz
   1 1    1.3190999999999999    1.3190999999999999    1.3194999999999999    0.0000000000000025    0.0000000000000025    0.0000000000000415
   2 1    3.9572998295726887    3.9572998295726887    1.3194999999999999   -0.0000000000000001   -0.0000000000000001    0.0000000000000414
   3 1    3.9572998295726887    1.3190999999999999    3.9576998295726966   -0.0000000000000001    0.0000000000000025    0.0000000000000039
   4 1    1.3190999999999999    3.9572998295726887    3.9576998295726966    0.0000000000000024   -0.0000000000000001    0.0000000000000039
   5 1    6.5954996591453767    1.3190999999999999    1.3194999999999999   -0.0000000000000026    0.0000000000000025    0.0000000000000415
   6 1    9.2336994887180488    3.9572998295726887    1.3194999999999999    0.0000000000000056   -0.0000000000000001    0.0000000000000414
   7 1    9.2336994887180488    1.3190999999999999    3.9576998295726966    0.0000000000000056    0.0000000000000024    0.0000000000000039
   8 1    6.5954996591453767    3.9572998295726887    3.9576998295726966   -0.0000000000000026   -0.0000000000000001    0.0000000000000039
   9 1   11.8718993182907564    1.3190999999999999    1.3194999999999999   -0.0000000000000045    0.0000000000000025    0.0000000000000415
  10 1   14.5100991478634356    3.9572998295726887    1.3194999999999999    0.0000000000000002   -0.0000000000000001    0.0000000000000414
  11 1   14.5100991478634356    1.3190999999999999    3.9576998295726966    0.0000000000000002    0.0000000000000025    0.0000000000000039
  12 1   11.8718993182907564    3.9572998295726887    3.9576998295726966   -0.0000000000000045   -0.0000000000000001    0.0000000000000039
  13 1   17.1482989774361165    1.3190999999999999    1.3194999999999999    0.0000000000000061    0.0000000000000026    0.0000000000000415
  14 1   19.7864988070088366    3.9572998295726887    1.3194999999999999   -0.0000000000000072   -0.0000000000000001    0.0000000000000414
  15 1   19.7864988070088366    1.3190999999999999    3.9576998295726966   -0.0000000000000072    0.0000000000000024    0.0000000000000039
  16 1   17.1482989774361165    3.9572998295726887    3.9576998295726966    0.0000000000000061   -0.0000000000000001    0.0000000000000038
  17 1    1.3190999999999999    6.5954996591453767    1.3194999999999999    0.0000000000000025   -0.0000000000000026    0.0000000000000415
  18 1    3.9572998295726887    9.2336994887180488    1.3194999999999999   -0.0000000000000001    0.0000000000000056    0.0000000000000414
  19 1    3.9572998295726887    6.5954996591453767    3.9576998295726966   -0.0000000000000001   -0.0000000000000026    0.0000000000000039
  20 1    1.3190999999999999    9.2336994887180488    3.9576998295726966    0.0000000000000024    0.0000000000000056    0.0000000000000039
  21 1    6.5954996591453767    6.5954996591453767    1.3194999999999999   -0.0000000000000026   -0.0000000000000026    0.0000000000000414
  22 1    9.2336994887180488    9.2336994887180488    1.3194999999999999    0.0000000000000056    0.0000000000000056    0.0000000000000415
  23 1    9.2336994887180488    6.5954996591453767    3.9576998295726966    0.0000000000000056   -0.0000000000000026    0.0000000000000039
  24 1    6.5954996591453767    9.2336994887180488    3.9576998295726966   -0.0000000000000026    0.0000000000000056    0.0000000000000039
  25 1   11.8718993182907564    6.5954996591453767    1.3194999999999999   -0.0000000000000045   -0.0000000000000026    0.0000000000000414
  26 1   14.5100991478634356    9.2336994887180488    1.3194999999999999    0.0000000000000002    0.0000000000000056    0.0000000000000415
  27 1   14.5100991478634356    6.5954996591453767    3.9576998295726966    0.0000000000000002   -0.0000000000000026    0.0000000000000039
  28 1   11.8718993182907564    9.2336994887180488    3.9576998295726966   -0.0000000000000045    0.0000000000000056    0.0000000000000039
  29 1   17.1482989774361165    6.5954996591453767    1.3194999999999999    0.0000000000000061   -0.0000000000000026    0.0000000000000415
  30 1   19.7864988070088366    9.2336994887180488    1.3194999999999999   -0.0000000000000072    0.0000000000000056    0.0000000000000415
  31 1   19.7864988070088366    6.5954996591453767    3.9576998295726966   -0.0000000000000072   -0.0000000000000026    0.0000000000000038
  32 1   17.1482989774361165    9.2336994887180488    3.9576998295726966    0.0000000000000061    0.0000000000000056    0.0000000000000038
  33 1    1.3190999999999999    1.3190999999999999    6.5958996591454282    0.0000000000000025    0.0000000000000025   -0.0000000000000127
  34 1    3.9572998295726887    3.9572998295726887    6.5958996591454282   -0.0000000000000001   -0.0000000000000001   -0.0000000000000127
  35 1    3.9572998295726887    1.3190999999999999    9.2340994887180816   -0.0000000000000001    0.0000000000000025    0.0000000000000191
  36 1    1.3190999999999999    3.9572998295726887    9.2340994887180816    0.0000000000000025   -0.0000000000000001    0.0000000000000191
  37 1    6.5954996591453767    1.3190999999999999    6.5958996591454282   -0.0000000000000026    0.0000000000000025   -0.0000000000000127
  38 1    9.2336994887180488    3.9572998295726887    6.5958996591454282    0.0000000000000056   -0.0000000000000001   -0.0000000000000127
  39 1    9.2336994887180488    1.3190999999999999    9.2340994887180816    0.0000000000000056    0.0000000000000025    0.0000000000000191
  40 1    6.5954996591453767    3.9572998295726887    9.2340994887180816   -0.0000000000000026   -0.0000000000000001    0.0000000000000191
  41 1   11.8718993182907564    1.3190999999999999    6.5958996591454282   -0.0000000000000045    0.0000000000000025   -0.0000000000000127
  42 1   14.5100991478634356    3.9572998295726887    6.5958996591454282    0.0000000000000002   -0.0000000000000001   -0.0000000000000127
  43 1   14.5100991478634356    1.3190999999999999    9.2340994887180816    0.0000000000000002    0.0000000000000025    0.0000000000000191
  44 1   11.8718993182907564    3.9572998295726887    9.2340994887180816   -0.0000000000000045   -0.0000000000000001    0.0000000000000191
  45 1   17.1482989774361165    1.3190999999999999    6.5958996591454282    0.0000000000000061    0.0000000000000026   -0.0000000000000127
  46 1   19.7864988070088366    3.9572998295726887    6.5958996591454282   -0.0000000000000072   -0.0000000000000001   -0.0000000000000128
  47 1   19.7864988070088366    1.3190999999999999    9.2340994887180816   -0.0000000000000072    0.0000000000000025    0.0000000000000191
  48 1   17.1482989774361165    3.9572998295726887    9.2340994887180816    0.0000000000000061   -0.0000000000000001    0.0000000000000191
  49 1    1.3190999999999999    6.5954996591453767    6.5958996591454282    0.0000000000000025   -0.0000000000000026   -0.0000000000000127
  50 1    3.9572998295726887    9.2336994887180488    6.5958996591454282   -0.0000000000000001    0.0000000000000056   -0.0000000000000127
  51 1    3.9572998295726887    6.5954996591453767    9.2340994887180816   -0.0000000000000001   -0.0000000000000026    0.0000000000000191
  52 1    1.3190999999999999    9.2336994887180488    9.2340994887180816    0.0000000000000025    0.0000000000000056    0.0000000000000191
  53 1    6.5954996591453767    6.5954996591453767    6.5958996591454282   -0.0000000000000026   -0.0000000000000026   -0.0000000000000127
  54 1    9.2336994887180488    9.2336994887180488    6.5958996591454282    0.0000000000000056    0.0000000000000056   -0.0000000000000127
  55 1    9.2336994887180488    6.5954996591453767    9.2340994887180816    0.0000000000000056   -0.0000000000000026    0.0000000000000191
  56 1    6.5954996591453767    9.2336994887180488    9.2340994887180816   -0.0000000000000026    0.0000000000000056    0.0000000000000191
  57 1   11.8718993182907564    6.5954996591453767    6.5958996591454282   -0.0000000000000045   -0.0000000000000026   -0.0000000000000128
  58 1   14.5100991478634356    9.2336994887180488    6.5958996591454282    0.0000000000000002    0.0000000000000056   -0.0000000000000127
  59 1   14.5100991478634356    6.5954996591453767    9.2340994887180816    0.0000000000000002   -0.0000000000000026    0.0000000000000191
  60 1   11.8718993182907564    9.2336994887180488    9.2340994887180816   -0.0000000000000045    0.0000000000000055    0.0000000000000191
  61 1   17.1482989774361165    6.5954996591453767    6.5958996591454282    0.0000000000000061   -0.0000000000000026   -0.0000000000000127
  62 1   19.7864988070088366    9.2336994887180488    6.5958996591454282   -0.0000000000000072    0.0000000000000056   -0.0000000000000128
  63 1   19.7864988070088366    6.5954996591453767    9.2340994887180816   -0.0000000000000072   -0.0000000000000026    0.0000000000000191
  64 1   17.1482989774361165    9.2336994887180488    9.2340994887180816    0.0000000000000061    0.0000000000000055    0.0000000000000191
  65 1    1.3190999999999999    1.3190999999999999   11.8722993182908567    0.0000000000000026    0.0000000000000026   -0.0000000000000123
  66 1    3.9572998295726887    3.9572998295726887   11.8722993182908567   -0.0000000000000001   -0.0000000000000001   -0.0000000000000123
  67 1    6.5954996591453767    1.3190999999999999   11.8722993182908567   -0.0000000000000026    0.0000000000000025   -0.0000000000000123
  68 1    9.2336994887180488    3.9572998295726887   11.8722993182908567    0.0000000000000056   -0.0000000000000001   -0.0000000000000123
  69 1   11.8718993182907564    1.3190999999999999   11.8722993182908567   -0.0000000000000045    0.0000000000000025   -0.0000000000000123
  70 1   14.5100991478634356    3.9572998295726887   11.8722993182908567    0.0000000000000002   -0.0000000000000001   -0.0000000000000123
  71 1   17.1482989774361165    1.3190999999999999   11.8722993182908567    0.0000000000000061    0.0000000000000026   -0.0000000000000123
  72 1   19.7864988070088366    3.9572998295726887   11.8722993182908567   -0.0000000000000072   -0.0000000000000001   -0.0000000000000124
  73 1    1.3190999999999999    6.5954996591453767   11.8722993182908567    0.0000000000000025   -0.0000000000000026   -0.0000000000000123
  74 1    3.9572998295726887    9.2336994887180488   11.8722993182908567   -0.0000000000000001    0.0000000000000056   -0.0000000000000123
  75 1    6.5954996591453767    6.5954996591453767   11.8722993182908567   -0.0000000000000026   -0.0000000000000026   -0.0000000000000123
  76 1    9.2336994887180488    9.2336994887180488   11.8722993182908567    0.0000000000000056    0.0000000000000056   -0.0000000000000122
  77 1   11.8718993182907564    6.5954996591453767   11.8722993182908567   -0.0000000000000045   -0.0000000000000026   -0.0000000000000123
  78 1   14.5100991478634356    9.2336994887180488   11.8722993182908567    0.0000000000000002    0.0000000000000056   -0.0000000000000123
  79 1   17.1482989774361165    6.5954996591453767   11.8722993182908567    0.0000000000000061   -0.0000000000000026   -0.0000000000000123
  80 1   19.7864988070088366    9.2336994887180488   11.8722993182908567   -0.0000000000000072    0.0000000000000056   -0.0000000000000123
  81 1    3.9572998295726887    1.3190999999999999   14.5104991478635554   -0.0000000000000001    0.0000000000000025    0.0000000000000036
  82 1    1.3190999999999999    3.9572998295726887   14.5104991478635554    0.0000000000000025   -0.0000000000000001    0.0000000000000036
  83 1    9.2336994887180488    1.3190999999999999   14.5104991478635554    0.0000000000000056    0.0000000000000025    0.0000000000000035
  84 1    6.5954996591453767    3.9572998295726887   14.5104991478635554   -0.0000000000000026   -0.0000000000000001    0.0000000000000035
  85 1   14.5100991478634356    1.3190999999999999   14.5104991478635554    0.0000000000000002    0.0000000000000025    0.0000000000000036
  86 1   11.8718993182907564    3.9572998295726887   14.5104991478635554   -0.0000000000000045   -0.0000000000000001    0.0000000000000035
  87 1   19.7864988070088366    1.3190999999999999   14.5104991478635554   -0.0000000000000072    0.0000000000000025    0.0000000000000036
  88 1   17.1482989774361165    3.9572998295726887   14.5104991478635554    0.0000000000000061   -0.0000000000000001    0.0000000000000035
  89 1    3.9572998295726887    6.5954996591453767   14.5104991478635554   -0.0000000000000001   -0.0000000000000026    0.0000000000000035
  90 1    1.3190999999999999    9.2336994887180488   14.5104991478635554    0.0000000000000025    0.0000000000000056    0.0000000000000035
  91 1    9.2336994887180488    6.5954996591453767   14.5104991478635554    0.0000000000000056   -0.0000000000000026    0.0000000000000035
  92 1    6.5954996591453767    9.2336994887180488   14.5104991478635554   -0.0000000000000026    0.0000000000000056    0.0000000000000035
  93 1   14.5100991478634356    6.5954996591453767   14.5104991478635554    0.0000000000000002   -0.0000000000000026    0.0000000000000035
  94 1   11.8718993182907564    9.2336994887180488   14.5104991478635554   -0.0000000000000045    0.0000000000000056    0.0000000000000035
  95 1   19.7864988070088366    6.5954996591453767   14.5104991478635554   -0.0000000000000072   -0.0000000000000026    0.0000000000000035
  96 1   17.1482989774361165    9.2336994887180488   14.5104991478635554    0.0000000000000061    0.0000000000000055    0.0000000000000035
  97 1    1.3190999999999999    1.3190999999999999   17.1486989774362755    0.0000000000000025    0.0000000000000025    0.0000000000000033
  98 1    3.9572998295726887    3.9572998295726887   17.1486989774362755   -0.0000000000000001   -0.0000000000000001    0.0000000000000033
  99 1    3.9572998295726887    1.3190999999999999   19.7868988070090168   -0.0000000000000001    0.0000000000000025   -0.0000000000000067
 100 1    1.3190999999999999    3.9572998295726887   19.7868988070090168    0.0000000000000024   -0.0000000000000001   -0.0000000000000067
 101 1    6.5954996591453767    1.3190999999999999   17.1486989774362755   -0.0000000000000026    0.0000000000000025    0.0000000000000033
 102 1    9.2336994887180488    3.9572998295726887   17.1486989774362755    0.0000000000000056   -0.0000000000000001    0.0000000000000033
 103 1    9.2336994887180488    1.3190999999999999   19.7868988070090168    0.0000000000000056    0.0000000000000025   -0.0000000000000067
 104 1    6.5954996591453767    3.9572998295726887   19.7868988070090168   -0.0000000000000026   -0.0000000000000001   -0.0000000000000067
 105 1   11.8718993182907564    1.3190999999999999   17.1486989774362755   -0.0000000000000045    0.0000000000000025    0.0000000000000033
 106 1   14.5100991478634356    3.9572998295726887   17.1486989774362755    0.0000000000000002   -0.0000000000000001    0.0000000000000033
 107 1   14.5100991478634356    1.3190999999999999   19.7868988070090168    0.0000000000000002    0.0000000000000025   -0.0000000000000067
 108 1   11.8718993182907564    3.9572998295726887   19.7868988070090168   -0.0000000000000045   -0.0000000000000001   -0.0000000000000067
 109 1   17.1482989774361165    1.3190999999999999   17.1486989774362755    0.0000000000000061    0.0000000000000026    0.0000000000000033
 110 1   19.7864988070088366    3.9572998295726887   17.1486989774362755   -0.0000000000000072   -0.0000000000000001    0.0000000000000032
 111 1   19.7864988070088366    1.3190999999999999   19.7868988070090168   -0.0000000000000072    0.0000000000000025   -0.0000000000000067
 112 1   17.1482989774361165    3.9572998295726887   19.7868988070090168    0.0000000000000061   -0.0000000000000001   -0.0000000000000067
 113 1    1.3190999999999999    6.5954996591453767   17.1486989774362755    0.0000000000000025   -0.0000000000000026    0.0000000000000033
 114 1    3.9572998295726887    9.2336994887180488   17.1486989774362755   -0.0000000000000001    0.0000000000000056    0.0000000000000033
 115 1    3.9572998295726887    6.5954996591453767   19.7868988070090168   -0.0000000000000001   -0.0000000000000026   -0.0000000000000067
 116 1    1.3190999999999999    9.2336994887180488   19.7868988070090168    0.0000000000000025    0.0000000000000056   -0.0000000000000067
 117 1    6.5954996591453767    6.5954996591453767   17.1486989774362755   -0.0000000000000026   -0.0000000000000026    0.0000000000000033
 118 1    9.2336994887180488    9.2336994887180488   17.1486989774362755    0.0000000000000056    0.0000000000000056    0.0000000000000033
 119 1    9.2336994887180488    6.5954996591453767   19.7868988070090168    0.0000000000000056   -0.0000000000000026   -0.0000000000000067
 120 1    6.5954996591453767    9.2336994887180488   19.7868988070090168   -0.0000000000000026    0.0000000000000056   -0.0000000000000067
 121 1   11.8718993182907564    6.5954996591453767   17.1486989774362755   -0.0000000000000045   -0.0000000000000026    0.0000000000000033
 122 1   14.5100991478634356    9.2336994887180488   17.1486989774362755    0.0000000000000002    0.0000000000000056    0.0000000000000033
 123 1   14.5100991478634356    6.5954996591453767   19.7868988070090168    0.0000000000000002   -0.0000000000000026   -0.0000000000000067
 124 1   11.8718993182907564    9.2336994887180488   19.7868988070090168   -0.0000000000000045    0.0000000000000056   -0.0000000000000067
 125 1   17.1482989774361165    6.5954996591453767   17.1486989774362755    0.0000000000000061   -0.0000000000000026    0.0000000000000033
 126 1   19.7864988070088366    9.2336994887180488   17.1486989774362755   -0.0000000000000072    0.0000000000000056    0.0000000000000032
 127 1   19.7864988070088366    6.5954996591453767   19.7868988070090168   -0.0000000000000072   -0.0000000000000026   -0.0000000000000067
 128 1   17.1482989774361165    9.2336994887180488   19.7868988070090168    0.0000000000000061    0.0000000000000056   -0.0000000000000067
 129 1    1.3190999999999999    1.3190999999999999   22.4250986365817155    0.0000000000000025    0.0000000000000025    0.0000000000000071
 130 1    3.9572998295726887    3.9572998295726887   22.4250986365817155   -0.0000000000000001   -0.0000000000000001    0.0000000000000071
 131 1    3.9572998295726887    1.3190999999999999   25.0632984661544569   -0.0000000000000001    0.0000000000000025   -0.0000000000000129
 132 1    1.3190999999999999    3.9572998295726887   25.0632984661544569    0.0000000000000024   -0.0000000000000000   -0.0000000000000129
 133 1    6.5954996591453767    1.3190999999999999   22.4250986365817155   -0.0000000000000026    0.0000000000000025    0.0000000000000071
 134 1    9.2336994887180488    3.9572998295726887   22.4250986365817155    0.0000000000000056   -0.0000000000000001    0.0000000000000071
 135 1    9.2336994887180488    1.3190999999999999   25.0632984661544569    0.0000000000000056    0.0000000000000025   -0.0000000000000129
 136 1    6.5954996591453767    3.9572998295726887   25.0632984661544569   -0.0000000000000026   -0.0000000000000001   -0.0000000000000129
 137 1   11.8718993182907564    1.3190999999999999   22.4250986365817155   -0.0000000000000045    0.0000000000000025    0.0000000000000071
 138 1   14.5100991478634356    3.9572998295726887   22.4250986365817155    0.0000000000000002   -0.0000000000000001    0.0000000000000071
 139 1   14.5100991478634356    1.3190999999999999   25.0632984661544569    0.0000000000000002    0.0000000000000025   -0.0000000000000129
 140 1   11.8718993182907564    3.9572998295726887   25.0632984661544569   -0.0000000000000045   -0.0000000000000001   -0.0000000000000129
 141 1   17.1482989774361165    1.3190999999999999   22.4250986365817155    0.0000000000000061    0.0000000000000026    0.0000000000000071
 142 1   19.7864988070088366    3.9572998295726887   22.4250986365817155   -0.0000000000000072   -0.0000000000000001    0.0000000000000071
 143 1   19.7864988070088366    1.3190999999999999   25.0632984661544569   -0.0000000000000072    0.0000000000000025   -0.0000000000000129
 144 1   17.1482989774361165    3.9572998295726887   25.0632984661544569    0.0000000000000061   -0.0000000000000001   -0.0000000000000130
 145 1    1.3190999999999999    6.5954996591453767   22.4250986365817155    0.0000000000000025   -0.0000000000000026    0.0000000000000071
 146 1    3.9572998295726887    9.2336994887180488   22.4250986365817155   -0.0000000000000001    0.0000000000000056    0.0000000000000071
 147 1    3.9572998295726887    6.5954996591453767   25.0632984661544569   -0.0000000000000001   -0.0000000000000026   -0.0000000000000129
 148 1    1.3190999999999999    9.2336994887180488   25.0632984661544569    0.0000000000000024    0.0000000000000056   -0.0000000000000129
 149 1    6.5954996591453767    6.5954996591453767   22.4250986365817155   -0.0000000000000026   -0.0000000000000026    0.0000000000000071
 150 1    9.2336994887180488    9.2336994887180488   22.4250986365817155    0.0000000000000056    0.0000000000000056    0.0000000000000071
 151 1    9.2336994887180488    6.5954996591453767   25.0632984661544569    0.0000000000000056   -0.0000000000000026   -0.0000000000000129
 152 1    6.5954996591453767    9.2336994887180488   25.0632984661544569   -0.0000000000000026    0.0000000000000056   -0.0000000000000129
 153 1   11.8718993182907564    6.5954996591453767   22.4250986365817155   -0.0000000000000045   -0.0000000000000026    0.0000000000000071
 154 1   14.5100991478634356    9.2336994887180488   22.4250986365817155    0.0000000000000002    0.0000000000000056    0.0000000000000071
 155 1   14.5100991478634356    6.5954996591453767   25.0632984661544569    0.0000000000000002   -0.0000000000000026   -0.0000000000000130
 156 1   11.8718993182907564    9.2336994887180488   25.0632984661544569   -0.0000000000000045    0.0000000000000056   -0.0000000000000129
 157 1   17.1482989774361165    6.5954996591453767   22.4250986365817155    0.0000000000000061   -0.0000000000000026    0.0000000000000071
 158 1   19.7864988070088366    9.2336994887180488   22.4250986365817155   -0.0000000000000072    0.0000000000000056    0.0000000000000070
 159 1   19.7864988070088366    6.5954996591453767   25.0632984661544569   -0.0000000000000072   -0.0000000000000026   -0.0000000000000130
 160 1   17.1482989774361165    9.2336994887180488   25.0632984661544569    0.0000000000000061    0.0000000000000056   -0.0000000000000130
 161 1    1.3190999999999999    1.3190999999999999   27.7014982957271165    0.0000000000000025    0.0000000000000025    0.0000000000000143
 162 1    3.9572998295726887    3.9572998295726887   27.7014982957271165   -0.0000000000000001   -0.0000000000000001    0.0000000000000142
 163 1    3.9572998295726887    1.3190999999999999   30.3396981252998650   -0.0000000000000001    0.0000000000000025   -0.0000000000000130
 164 1    1.3190999999999999    3.9572998295726887   30.3396981252998650    0.0000000000000024   -0.0000000000000001   -0.0000000000000130
 165 1    6.5954996591453767    1.3190999999999999   27.7014982957271165   -0.0000000000000026    0.0000000000000025    0.0000000000000142
 166 1    9.2336994887180488    3.9572998295726887   27.7014982957271165    0.0000000000000056   -0.0000000000000001    0.0000000000000142
 167 1    9.2336994887180488    1.3190999999999999   30.3396981252998650    0.0000000000000056    0.0000000000000025   -0.0000000000000130
 168 1    6.5954996591453767    3.9572998295726887   30.3396981252998650   -0.0000000000000026   -0.0000000000000001   -0.0000000000000130
 169 1   11.8718993182907564    1.3190999999999999   27.7014982957271165   -0.0000000000000045    0.0000000000000025    0.0000000000000142
 170 1   14.5100991478634356    3.9572998295726887   27.7014982957271165    0.0000000000000002   -0.0000000000000001    0.0000000000000142
 171 1   14.5100991478634356    1.3190999999999999   30.3396981252998650    0.0000000000000002    0.0000000000000025   -0.0000000000000130
 172 1   11.8718993182907564    3.9572998295726887   30.3396981252998650   -0.0000000000000045   -0.0000000000000001   -0.0000000000000130
 173 1   17.1482989774361165    1.3190999999999999   27.7014982957271165    0.0000000000000061    0.0000000000000026    0.0000000000000143
 174 1   19.7864988070088366    3.9572998295726887   27.7014982957271165   -0.0000000000000072   -0.0000000000000001    0.0000000000000142
 175 1   19.7864988070088366    1.3190999999999999   30.3396981252998650   -0.0000000000000072    0.0000000000000025   -0.0000000000000130
 176 1   17.1482989774361165    3.9572998295726887   30.3396981252998650    0.0000000000000061   -0.0000000000000001   -0.0000000000000130
 177 1    1.3190999999999999    6.5954996591453767   27.7014982957271165    0.0000000000000025   -0.0000000000000026    0.0000000000000142
 178 1    3.9572998295726887    9.2336994887180488   27.7014982957271165   -0.0000000000000001    0.0000000000000056    0.0000000000000142
 179 1    3.9572998295726887    6.5954996591453767   30.3396981252998650   -0.0000000000000001   -0.0000000000000026   -0.0000000000000130
 180 1    1.3190999999999999    9.2336994887180488   30.3396981252998650    0.0000000000000025    0.0000000000000056   -0.0000000000000130
 181 1    6.5954996591453767    6.5954996591453767   27.7014982957271165   -0.0000000000000026   -0.0000000000000026    0.0000000000000142
 182 1    9.2336994887180488    9.2336994887180488   27.7014982957271165    0.0000000000000056    0.0000000000000056    0.0000000000000142
 183 1    9.2336994887180488    6.5954996591453767   30.3396981252998650    0.0000000000000056   -0.0000000000000026   -0.0000000000000130
 184 1    6.5954996591453767    9.2336994887180488   30.3396981252998650   -0.0000000000000026    0.0000000000000056   -0.0000000000000130
 185 1   11.8718993182907564    6.5954996591453767   27.7014982957271165   -0.0000000000000045   -0.0000000000000026    0.0000000000000142
 186 1   14.5100991478634356    9.2336994887180488   27.7014982957271165    0.0000000000000002    0.0000000000000056    0.0000000000000142
 187 1   14.5100991478634356    6.5954996591453767   30.3396981252998650    0.0000000000000002   -0.0000000000000026   -0.0000000000000130
 188 1   11.8718993182907564    9.2336994887180488   30.3396981252998650   -0.0000000000000045    0.0000000000000056   -0.0000000000000130
 189 1   17.1482989774361165    6.5954996591453767   27.7014982957271165    0.0000000000000061   -0.0000000000000026    0.0000000000000142
 190 1   19.7864988070088366    9.2336994887180488   27.7014982957271165   -0.0000000000000072    0.0000000000000056    0.0000000000000142
 191 1   19.7864988070088366    6.5954996591453767   30.3396981252998650   -0.0000000000000072   -0.0000000000000026   -0.0000000000000130
 192 1   17.1482989774361165    9.2336994887180488   30.3396981252998650    0.0000000000000061    0.0000000000000056   -0.0000000000000130
 193 1    1.3190999999999999    1.3190999999999999   32.9778979548725317    0.0000000000000025    0.0000000000000025    0.0000000000000070
 194 1    3.9572998295726887    3.9572998295726887   32.9778979548725317   -0.0000000000000001   -0.0000000000000001    0.0000000000000070
 195 1    3.9572998295726887    1.3190999999999999   35.6160977844452447   -0.0000000000000001    0.0000000000000025    0.0000000000000095
 196 1    1.3190999999999999    3.9572998295726887   35.6160977844452447    0.0000000000000024   -0.0000000000000000    0.0000000000000095
 197 1    6.5954996591453767    1.3190999999999999   32.9778979548725317   -0.0000000000000026    0.0000000000000025    0.0000000000000070
 198 1    9.2336994887180488    3.9572998295726887   32.9778979548725317    0.0000000000000056   -0.0000000000000001    0.0000000000000070
 199 1    9.2336994887180488    1.3190999999999999   35.6160977844452447    0.0000000000000056    0.0000000000000025    0.0000000000000095
 200 1    6.5954996591453767    3.9572998295726887   35.6160977844452447   -0.0000000000000026   -0.0000000000000001    0.0000000000000095
 201 1   11.8718993182907564    1.3190999999999999   32.9778979548725317   -0.0000000000000045    0.0000000000000025    0.0000000000000070
 202 1   14.5100991478634356    3.9572998295726887   32.9778979548725317    0.0000000000000002   -0.0000000000000001    0.0000000000000070
 203 1   14.5100991478634356    1.3190999999999999   35.6160977844452447    0.0000000000000002    0.0000000000000025    0.0000000000000095
 204 1   11.8718993182907564    3.9572998295726887   35.6160977844452447   -0.0000000000000045   -0.0000000000000001    0.0000000000000095
 205 1   17.1482989774361165    1.3190999999999999   32.9778979548725317    0.0000000000000061    0.0000000000000026    0.0000000000000070
 206 1   19.7864988070088366    3.9572998295726887   32.9778979548725317   -0.0000000000000072   -0.0000000000000001    0.0000000000000069
 207 1   19.7864988070088366    1.3190999999999999   35.6160977844452447   -0.0000000000000072    0.0000000000000025    0.0000000000000095
 208 1   17.1482989774361165    3.9572998295726887   35.6160977844452447    0.0000000000000061   -0.0000000000000001    0.0000000000000095
 209 1    1.3190999999999999    6.5954996591453767   32.9778979548725317    0.0000000000000025   -0.0000000000000026    0.0000000000000070
 210 1    3.9572998295726887    9.2336994887180488   32.9778979548725317   -0.0000000000000001    0.0000000000000056    0.0000000000000070
 211 1    3.9572998295726887    6.5954996591453767   35.6160977844452447   -0.0000000000000001   -0.0000000000000026    0.0000000000000095
 212 1    1.3190999999999999    9.2336994887180488   35.6160977844452447    0.0000000000000025    0.0000000000000056    0.0000000000000095
 213 1    6.5954996591453767    6.5954996591453767   32.9778979548725317   -0.0000000000000026   -0.0000000000000026    0.0000000000000070
 214 1    9.2336994887180488    9.2336994887180488   32.9778979548725317    0.0000000000000056    0.0000000000000056    0.0000000000000070