1536
Atoms. Timestep: 0
Ar    1.3190999999999999    1.3190999999999999    1.3194999999999999
Ar    3.9572998295726887    3.9572998295726887    1.3194999999999999
Ar    3.9572998295726887    1.3190999999999999    3.9576998295726966
Ar    1.3190999999999999    3.9572998295726887    3.9576998295726966
Ar    6.5954996591453767    1.3190999999999999    1.3194999999999999
Ar    9.2336994887180488    3.9572998295726887    1.3194999999999999
Ar    9.2336994887180488    1.3190999999999999    3.9576998295726966
Ar    6.5954996591453767    3.9572998295726887    3.9576998295726966
Ar   11.8718993182907564    1.3190999999999999    1.3194999999999999
Ar   14.5100991478634356    3.9572998295726887    1.3194999999999999
Ar   14.5100991478634356    1.3190999999999999    3.9576998295726966
Ar   11.8718993182907564    3.9572998295726887    3.9576998295726966
Ar   17.1482989774361165    1.3190999999999999    1.3194999999999999
Ar   19.7864988070088366    3.9572998295726887    1.3194999999999999
Ar   19.7864988070088366    1.3190999999999999    3.9576998295726966
Ar   17.1482989774361165    3.9572998295726887    3.9576998295726966
Ar    1.3190999999999999    6.5954996591453767    1.3194999999999999
Ar    3.9572998295726887    9.2336994887180488    1.3194999999999999
Ar    3.9572998295726887    6.5954996591453767    3.9576998295726966
Ar    1.3190999999999999    9.2336994887180488    3.9576998295726966
Ar    6.5954996591453767    6.5954996591453767    1.3194999999999999
Ar    9.2336994887180488    9.2336994887180488    1.3194999999999999
Ar    9.2336994887180488    6.5954996591453767    3.9576998295726966
Ar    6.5954996591453767    9.2336994887180488    3.9576998295726966
Ar   11.8718993182907564    6.5954996591453767    1.3194999999999999
Ar   14.5100991478634356    9.2336994887180488    1.3194999999999999
Ar   14.5100991478634356    6.5954996591453767    3.9576998295726966
Ar   11.8718993182907564    9.2336994887180488    3.9576998295726966
Ar   17.1482989774361165    6.5954996591453767    1.3194999999999999
Ar   19.7864988070088366    9.2336994887180488    1.3194999999999999
Ar   19.7864988070088366    6.5954996591453767    3.9576998295726966
Ar   17.1482989774361165    9.2336994887180488    3.9576998295726966
Ar    1.3190999999999999    1.3190999999999999    6.5958996591454282
Ar    3.9572998295726887    3.9572998295726887    6.5958996591454282
Ar    3.9572998295726887    1.3190999999999999    9.2340994887180816
Ar    1.3190999999999999    3.9572998295726887    9.2340994887180816
Ar    6.5954996591453767    1.3190999999999999    6.5958996591454282
Ar    9.2336994887180488    3.9572998295726887    6.5958996591454282
Ar    9.2336994887180488    1.3190999999999999    9.2340994887180816
Ar    6.5954996591453767    3.9572998295726887    9.2340994887180816
Ar   11.8718993182907564    1.3190999999999999    6.5958996591454282
Ar   14.5100991478634356    3.9572998295726887    6.5958996591454282
Ar   14.5100991478634356    1.3190999999999999    9.2340994887180816
Ar   11.8718993182907564    3.9572998295726887    9.2340994887180816
Ar   17.1482989774361165    1.3190999999999999    6.5958996591454282
Ar   19.7864988070088366    3.9572998295726887    6.5958996591454282
Ar   19.7864988070088366    1.3190999999999999    9.2340994887180816
Ar   17.1482989774361165    3.9572998295726887    9.2340994887180816
Ar    1.3190999999999999    6.5954996591453767    6.5958996591454282
Ar    3.9572998295726887    9.2336994887180488    6.5958996591454282
Ar    3.9572998295726887    6.5954996591453767    9.2340994887180816
Ar    1.3190999999999999    9.2336994887180488    9.2340994887180816
Ar    6.5954996591453767    6.5954996591453767    6.5958996591454282
Ar    9.2336994887180488    9.2336994887180488    6.5958996591454282
Ar    9.2336994887180488    6.5954996591453767    9.2340994887180816
Ar    6.5954996591453767    9.2336994887180488    9.2340994887180816
Ar   11.8718993182907564    6.5954996591453767    6.5958996591454282
Ar   14.5100991478634356    9.2336994887180488    6.5958996591454282
Ar   14.5100991478634356    6.5954996591453767    9.2340994887180816
Ar   11.8718993182907564    9.2336994887180488    9.2340994887180816
Ar   17.1482989774361165    6.5954996591453767    6.5958996591454282
Ar   19.7864988070088366    9.2336994887180488    6.5958996591454282
Ar   19.7864988070088366    6.5954996591453767    9.2340994887180816
Ar   17.1482989774361165    9.2336994887180488    9.2340994887180816
Ar    1.3190999999999999    1.3190999999999999   11.8722993182908567
Ar    3.9572998295726887    3.9572998295726887   11.8722993182908567
Ar    6.5954996591453767    1.3190999999999999   11.8722993182908567
Ar    9.2336994887180488    3.9572998295726887   11.8722993182908567
Ar   11.8718993182907564    1.3190999999999999   11.8722993182908567
Ar   14.5100991478634356    3.9572998295726887   11.8722993182908567
Ar   17.1482989774361165    1.3190999999999999   11.8722993182908567
Ar   19.7864988070088366    3.9572998295726887   11.8722993182908567
Ar    1.3190999999999999    6.5954996591453767   11.8722993182908567
Ar    3.9572998295726887    9.2336994887180488   11.8722993182908567
Ar    6.5954996591453767    6.5954996591453767   11.8722993182908567
Ar    9.2336994887180488    9.2336994887180488   11.8722993182908567
Ar   11.8718993182907564    6.5954996591453767   11.8722993182908567
Ar   14.5100991478634356    9.2336994887180488   11.8722993182908567
Ar   17.1482989774361165    6.5954996591453767   11.8722993182908567
Ar   19.7864988070088366    9.2336994887180488   11.8722993182908567
Ar    3.9572998295726887    1.3190999999999999   14.5104991478635554
Ar    1.3190999999999999    3.9572998295726887   14.5104991478635554
Ar    9.2336994887180488    1.3190999999999999   14.5104991478635554
Ar    6.5954996591453767    3.9572998295726887   14.5104991478635554
Ar   14.5100991478634356    1.3190999999999999   14.5104991478635554
Ar   11.8718993182907564    3.9572998295726887   14.5104991478635554
Ar   19.7864988070088366    1.3190999999999999   14.5104991478635554
Ar   17.1482989774361165    3.9572998295726887   14.5104991478635554
Ar    3.9572998295726887    6.5954996591453767   14.5104991478635554
Ar    1.3190999999999999    9.2336994887180488   14.5104991478635554
Ar    9.2336994887180488    6.5954996591453767   14.5104991478635554
Ar    6.5954996591453767    9.2336994887180488   14.5104991478635554
Ar   14.5100991478634356    6.5954996591453767   14.5104991478635554
Ar   11.8718993182907564    9.2336994887180488   14.5104991478635554
Ar   19.7864988070088366    6.5954996591453767   14.5104991478635554
Ar   17.1482989774361165    9.2336994887180488   14.5104991478635554
Ar    1.3190999999999999    1.3190999999999999   17.1486989774362755
Ar    3.9572998295726887    3.9572998295726887   17.1486989774362755
Ar    3.9572998295726887    1.3190999999999999   19.7868988070090168
Ar    1.3190999999999999    3.9572998295726887   19.7868988070090168
Ar    6.5954996591453767    1.3190999999999999   17.1486989774362755
Ar    9.2336994887180488    3.9572998295726887   17.1486989774362755
Ar    9.2336994887180488    1.3190999999999999   19.7868988070090168
Ar    6.5954996591453767    3.9572998295726887   19.7868988070090168
Ar   11.8718993182907564    1.3190999999999999   17.1486989774362755
Ar   14.5100991478634356    3.9572998295726887   17.1486989774362755
Ar   14.5100991478634356    1.3190999999999999   19.7868988070090168
Ar   11.8718993182907564    3.9572998295726887   19.7868988070090168
Ar   17.1482989774361165    1.3190999999999999   17.1486989774362755
Ar   19.7864988070088366    3.9572998295726887   17.1486989774362755
Ar   19.7864988070088366    1.3190999999999999   19.7868988070090168
Ar   17.1482989774361165    3.9572998295726887   19.7868988070090168
Ar    1.3190999999999999    6.5954996591453767   17.1486989774362755
Ar    3.9572998295726887    9.2336994887180488   17.1486989774362755
Ar    3.9572998295726887    6.5954996591453767   19.7868988070090168
Ar    1.3190999999999999    9.2336994887180488   19.7868988070090168
Ar    6.5954996591453767    6.5954996591453767   17.1486989774362755
Ar    9.2336994887180488    9.2336994887180488   17.1486989774362755
Ar    9.2336994887180488    6.5954996591453767   19.7868988070090168
Ar    6.5954996591453767    9.2336994887180488   19.7868988070090168
Ar   11.8718993182907564    6.5954996591453767   17.1486989774362755
Ar   14.5100991478634356    9.2336994887180488   17.1486989774362755
Ar   14.5100991478634356    6.5954996591453767   19.7868988070090168
Ar   11.8718993182907564    9.2336994887180488   19.7868988070090168
Ar   17.1482989774361165    6.5954996591453767   17.1486989774362755
Ar   19.7864988070088366    9.2336994887180488   17.1486989774362755
Ar   19.7864988070088366    6.5954996591453767   19.7868988070090168
Ar   17.1482989774361165    9.2336994887180488   19.7868988070090168
Ar    1.3190999999999999    1.3190999999999999   22.4250986365817155
Ar    3.9572998295726887    3.9572998295726887   22.4250986365817155
Ar    3.9572998295726887    1.3190999999999999   25.0632984661544569
Ar    1.3190999999999999    3.9572998295726887   25.0632984661544569
Ar    6.5954996591453767    1.3190999999999999   22.4250986365817155
Ar    9.2336994887180488    3.9572998295726887   22.4250986365817155
Ar    9.2336994887180488    1.3190999999999999   25.0632984661544569
Ar    6.5954996591453767    3.9572998295726887   25.0632984661544569
Ar   11.8718993182907564    1.3190999999999999   22.4250986365817155
Ar   14.5100991478634356    3.9572998295726887   22.4250986365817155
Ar   14.5100991478634356    1.3190999999999999   25.0632984661544569
Ar   11.8718993182907564    3.9572998295726887   25.0632984661544569
Ar   17.1482989774361165    1.3190999999999999   22.4250986365817155
Ar   19.7864988070088366    3.9572998295726887   22.4250986365817155
Ar   19.7864988070088366    1.3190999999999999   25.0632984661544569
Ar   17.1482989774361165    3.9572998295726887   25.0632984661544569
Ar    1.3190999999999999    6.5954996591453767   22.4250986365817155
Ar    3.9572998295726887    9.2336994887180488   22.4250986365817155
Ar    3.9572998295726887    6.5954996591453767   25.0632984661544569
Ar    1.3190999999999999    9.2336994887180488   25.0632984661544569
Ar    6.5954996591453767    6.5954996591453767   22.4250986365817155
Ar    9.2336994887180488    9.2336994887180488   22.4250986365817155
Ar    9.2336994887180488    6.5954996591453767   25.0632984661544569
Ar    6.5954996591453767    9.2336994887180488   25.0632984661544569
Ar   11.8718993182907564    6.5954996591453767   22.4250986365817155
Ar   14.5100991478634356    9.2336994887180488   22.4250986365817155
Ar   14.5100991478634356    6.5954996591453767   25.0632984661544569
Ar   11.8718993182907564    9.2336994887180488   25.0632984661544569
Ar   17.1482989774361165    6.5954996591453767   22.4250986365817155
Ar   19.7864988070088366    9.2336994887180488   22.4250986365817155
Ar   19.7864988070088366    6.5954996591453767   25.0632984661544569
Ar   17.1482989774361165    9.2336994887180488   25.0632984661544569
Ar    1.3190999999999999    1.3190999999999999   27.7014982957271165
Ar    3.9572998295726887    3.9572998295726887   27.7014982957271165
Ar    3.9572998295726887    1.3190999999999999   30.3396981252998650
Ar    1.3190999999999999    3.9572998295726887   30.3396981252998650
Ar    6.5954996591453767    1.3190999999999999   27.7014982957271165
Ar    9.2336994887180488    3.9572998295726887   27.7014982957271165
Ar    9.2336994887180488    1.3190999999999999   30.3396981252998650
Ar    6.5954996591453767    3.9572998295726887   30.3396981252998650
Ar   11.8718993182907564    1.3190999999999999   27.7014982957271165
Ar   14.5100991478634356    3.9572998295726887   27.7014982957271165
Ar   14.5100991478634356    1.3190999999999999   30.3396981252998650
Ar   11.8718993182907564    3.9572998295726887   30.3396981252998650
Ar   17.1482989774361165    1.3190999999999999   27.7014982957271165
Ar   19.7864988070088366    3.9572998295726887   27.7014982957271165
Ar   19.7864988070088366    1.3190999999999999   30.3396981252998650
Ar   17.1482989774361165    3.9572998295726887   30.3396981252998650
Ar    1.3190999999999999    6.5954996591453767   27.7014982957271165
Ar    3.9572998295726887    9.2336994887180488   27.7014982957271165
Ar    3.9572998295726887    6.5954996591453767   30.3396981252998650
Ar    1.3190999999999999    9.2336994887180488   30.3396981252998650
Ar    6.5954996591453767    6.5954996591453767   27.7014982957271165
Ar    9.2336994887180488    9.2336994887180488   27.7014982957271165
Ar    9.2336994887180488    6.5954996591453767   30.3396981252998650
Ar    6.5954996591453767    9.2336994887180488   30.3396981252998650
Ar   11.8718993182907564    6.5954996591453767   27.7014982957271165
Ar   14.5100991478634356    9.2336994887180488   27.7014982957271165
Ar   14.5100991478634356    6.5954996591453767   30.3396981252998650
Ar   11.8718993182907564    9.2336994887180488   30.3396981252998650
Ar   17.1482989774361165    6.5954996591453767   27.7014982957271165
Ar   19.7864988070088366    9.2336994887180488   27.7014982957271165
Ar   19.7864988070088366    6.5954996591453767   30.3396981252998650
Ar   17.1482989774361165    9.2336994887180488   30.3396981252998650
Ar    1.3190999999999999    1.3190999999999999   32.9778979548725317
Ar    3.9572998295726887    3.9572998295726887   32.9778979548725317
Ar    3.9572998295726887    1.3190999999999999   35.6160977844452447
Ar    1.3190999999999999    3.9572998295726887   35.6160977844452447
Ar    6.5954996591453767    1.3190999999999999   32.9778979548725317
Ar    9.2336994887180488    3.9572998295726887   32.9778979548725317
Ar    9.2336994887180488    1.3190999999999999   35.6160977844452447
Ar    6.5954996591453767    3.9572998295726887   35.6160977844452447
Ar   11.8718993182907564    1.3190999999999999   32.9778979548725317
Ar   14.5100991478634356    3.9572998295726887   32.9778979548725317
Ar   14.5100991478634356    1.3190999999999999   35.6160977844452447
Ar   11.8718993182907564    3.9572998295726887   35.6160977844452447
Ar   17.1482989774361165    1.3190999999999999   32.9778979548725317
Ar   19.7864988070088366    3.9572998295726887   32.9778979548725317
Ar   19.7864988070088366    1.3190999999999999   35.6160977844452447
Ar   17.1482989774361165    3.9572998295726887   35.6160977844452447
Ar    1.3190999999999999    6.5954996591453767   32.9778979548725317
Ar    3.9572998295726887    9.2336994887180488   32.9778979548725317
Ar    3.9572998295726887    6.5954996591453767   35.6160977844452447
Ar    1.3190999999999999    9.2336994887180488   35.6160977844452447
Ar    6.5954996591453767    6.5954996591453767   32.9778979548725317
Ar    9.2336994887180488    9.2336994887180488   32.9778979548725317
Ar    9.2336994887180488    6.5954996591453767   35.6160977844452447
Ar    6.5954996591453767    9.2336994887180488   35.6160977844452447
Ar   11.8718993182907564    6.5954996591453767   32.9778979548725317
Ar   14.5100991478634356    9.2336994887180488   32.9778979548725317
Ar   14.5100991478634356    6.5954996591453767   35.6160977844452447
Ar   11.8718993182907564    9.2336994887180488   35.6160977844452447
Ar   17.1482989774361165    6.5954996591453767   32.9778979548725317
Ar   19.7864988070088366    9.2336994887180488   32.9778979548725317
Ar   19.7864988070088366    6.5954996591453767   35.6160977844452447
Ar   17.1482989774361165    9.2336994887180488   35.6160977844452447
Ar    1.3190999999999999    1.3190999999999999   38.2542976140180215
Ar    3.9572998295726887    3.9572998295726887   38.2542976140180215
Ar    6.5954996591453767    1.3190999999999999   38.2542976140180215
Ar    9.2336994887180488    3.9572998295726887   38.2542976140180215
Ar   11.8718993182907564    1.3190999999999999   38.2542976140180215
Ar   14.5100991478634356    3.9572998295726887   38.2542976140180215
Ar   17.1482989774361165    1.3190999999999999   38.2542976140180215
Ar   19.7864988070088366    3.9572998295726887   38.2542976140180215
Ar    1.3190999999999999    6.5954996591453767   38.2542976140180215
Ar    3.9572998295726887    9.2336994887180488   38.2542976140180215
Ar    6.5954996591453767    6.5954996591453767   38.2542976140180215
Ar    9.2336994887180488    9.2336994887180488   38.2542976140180215
Ar   11.8718993182907564    6.5954996591453767   38.2542976140180215
Ar   14.5100991478634356    9.2336994887180488   38.2542976140180215
Ar   17.1482989774361165    6.5954996591453767   38.2542976140180215
Ar   19.7864988070088366    9.2336994887180488   38.2542976140180215
Ar    3.9572998295726887    1.3190999999999999   40.8924974435907700
Ar    1.3190999999999999    3.9572998295726887   40.8924974435907700
Ar    9.2336994887180488    1.3190999999999999   40.8924974435907700
Ar    6.5954996591453767    3.9572998295726887   40.8924974435907700
Ar   14.5100991478634356    1.3190999999999999   40.8924974435907700
Ar   11.8718993182907564    3.9572998295726887   40.8924974435907700
Ar   19.7864988070088366    1.3190999999999999   40.8924974435907700
Ar   17.1482989774361165    3.9572998295726887   40.8924974435907700
Ar    3.9572998295726887    6.5954996591453767   40.8924974435907700
Ar    1.3190999999999999    9.2336994887180488   40.8924974435907700
Ar    9.2336994887180488    6.5954996591453767   40.8924974435907700
Ar    6.5954996591453767    9.2336994887180488   40.8924974435907700
Ar   14.5100991478634356    6.5954996591453767   40.8924974435907700
Ar   11.8718993182907564    9.2336994887180488   40.8924974435907700
Ar   19.7864988070088366    6.5954996591453767   40.8924974435907700
Ar   17.1482989774361165    9.2336994887180488   40.8924974435907700
Ar    1.3190999999999999    1.3190999999999999   43.5306972731634332
Ar    3.9572998295726887    3.9572998295726887   43.5306972731634332
Ar    3.9572998295726887    1.3190999999999999   46.1688971027361035
Ar    1.3190999999999999    3.9572998295726887   46.1688971027361035
Ar    6.5954996591453767    1.3190999999999999   43.5306972731634332
Ar    9.2336994887180488    3.9572998295726887   43.5306972731634332
Ar    9.2336994887180488    1.3190999999999999   46.1688971027361035
Ar    6.5954996591453767    3.9572998295726887   46.1688971027361035
Ar   11.8718993182907564    1.3190999999999999   43.5306972731634332
Ar   14.5100991478634356    3.9572998295726887   43.5306972731634332
Ar   14.5100991478634356    1.3190999999999999   46.1688971027361035
Ar   11.8718993182907564    3.9572998295726887   46.1688971027361035
Ar   17.1482989774361165    1.3190999999999999   43.5306972731634332
Ar   19.7864988070088366    3.9572998295726887   43.5306972731634332
Ar   19.7864988070088366    1.3190999999999999   46.1688971027361035
Ar   17.1482989774361165    3.9572998295726887   46.1688971027361035
Ar    1.3190999999999999    6.5954996591453767   43.5306972731634332
Ar    3.9572998295726887    9.2336994887180488   43.5306972731634332
Ar    3.9572998295726887    6.5954996591453767   46.1688971027361035
Ar    1.3190999999999999    9.2336994887180488   46.1688971027361035
Ar    6.5954996591453767    6.5954996591453767   43.5306972731634332
Ar    9.2336994887180488    9.2336994887180488   43.5306972731634332
Ar    9.2336994887180488    6.5954996591453767   46.1688971027361035
Ar    6.5954996591453767    9.2336994887180488   46.1688971027361035
Ar   11.8718993182907564    6.5954996591453767   43.5306972731634332
Ar   14.5100991478634356    9.2336994887180488   43.5306972731634332
Ar   14.5100991478634356    6.5954996591453767   46.1688971027361035
Ar   11.8718993182907564    9.2336994887180488   46.1688971027361035
Ar   17.1482989774361165    6.5954996591453767   43.5306972731634332
Ar   19.7864988070088366    9.2336994887180488   43.5306972731634332
Ar   19.7864988070088366    6.5954996591453767   46.1688971027361035
Ar   17.1482989774361165    9.2336994887180488   46.1688971027361035
Ar    1.3190999999999999    1.3190999999999999   48.8070969323089017
Ar    3.9572998295726887    3.9572998295726887   48.8070969323089017
Ar    3.9572998295726887    1.3190999999999999   51.4452967618816359
Ar    1.3190999999999999    3.9572998295726887   51.4452967618816359
Ar    6.5954996591453767    1.3190999999999999   48.8070969323089017
Ar    9.2336994887180488    3.9572998295726887   48.8070969323089017
Ar    9.2336994887180488    1.3190999999999999   51.4452967618816359
Ar    6.5954996591453767    3.9572998295726887   51.4452967618816359
Ar   11.8718993182907564    1.3190999999999999   48.8070969323089017
Ar   14.5100991478634356    3.9572998295726887   48.8070969323089017
Ar   14.5100991478634356    1.3190999999999999   51.4452967618816359
Ar   11.8718993182907564    3.9572998295726887   51.4452967618816359
Ar   17.1482989774361165    1.3190999999999999   48.8070969323089017
Ar   19.7864988070088366    3.9572998295726887   48.8070969323089017
Ar   19.7864988070088366    1.3190999999999999   51.4452967618816359
Ar   17.1482989774361165    3.9572998295726887   51.4452967618816359
Ar    1.3190999999999999    6.5954996591453767   48.8070969323089017
Ar    3.9572998295726887    9.2336994887180488   48.8070969323089017
Ar    3.9572998295726887    6.5954996591453767   51.4452967618816359
Ar    1.3190999999999999    9.2336994887180488   51.4452967618816359
Ar    6.5954996591453767    6.5954996591453767   48.8070969323089017
Ar    9.2336994887180488    9.2336994887180488   48.8070969323089017
Ar    9.2336994887180488    6.5954996591453767   51.4452967618816359
Ar    6.5954996591453767    9.2336994887180488   51.4452967618816359
Ar   11.8718993182907564    6.5954996591453767   48.8070969323089017
Ar   14.5100991478634356    9.2336994887180488   48.8070969323089017
Ar   14.5100991478634356    6.5954996591453767   51.4452967618816359
Ar   11.8718993182907564    9.2336994887180488   51.4452967618816359
Ar   17.1482989774361165    6.5954996591453767   48.8070969323089017
Ar   19.7864988070088366    9.2336994887180488   48.8070969323089017
Ar   19.7864988070088366    6.5954996591453767   51.4452967618816359
Ar   17.1482989774361165    9.2336994887180488   51.4452967618816359
Ar    1.3190999999999999    1.3190999999999999   54.0834965914542352
Ar    3.9572998295726887    3.9572998295726887   54.0834965914542352
Ar    3.9572998295726887    1.3190999999999999   56.7216964210269552
Ar    1.3190999999999999    3.9572998295726887   56.7216964210269552
Ar    6.5954996591453767    1.3190999999999999   54.0834965914542352
Ar    9.2336994887180488    3.9572998295726887   54.0834965914542352
Ar    9.2336994887180488    1.3190999999999999   56.7216964210269552
Ar    6.5954996591453767    3.9572998295726887   56.7216964210269552
Ar   11.8718993182907564    1.3190999999999999   54.0834965914542352
Ar   14.5100991478634356    3.9572998295726887   54.0834965914542352
Ar   14.5100991478634356    1.3190999999999999   56.7216964210269552
Ar   11.8718993182907564    3.9572998295726887   56.7216964210269552
Ar   17.1482989774361165    1.3190999999999999   54.0834965914542352
Ar   19.7864988070088366    3.9572998295726887   54.0834965914542352
Ar   19.7864988070088366    1.3190999999999999   56.7216964210269552
Ar   17.1482989774361165    3.9572998295726887   56.7216964210269552
Ar    1.3190999999999999    6.5954996591453767   54.0834965914542352
Ar    3.9572998295726887    9.2336994887180488   54.0834965914542352
Ar    3.9572998295726887    6.5954996591453767   56.7216964210269552
Ar    1.3190999999999999    9.2336994887180488   56.7216964210269552
Ar    6.5954996591453767    6.5954996591453767   54.0834965914542352
Ar    9.2336994887180488    9.2336994887180488   54.0834965914542352
Ar    9.2336994887180488    6.5954996591453767   56.7216964210269552
Ar    6.5954996591453767    9.2336994887180488   56.7216964210269552
Ar   11.8718993182907564    6.5954996591453767   54.0834965914542352
Ar   14.5100991478634356    9.2336994887180488   54.0834965914542352
Ar   14.5100991478634356    6.5954996591453767   56.7216964210269552
Ar   11.8718993182907564    9.2336994887180488   56.7216964210269552
Ar   17.1482989774361165    6.5954996591453767   54.0834965914542352
Ar   19.7864988070088366    9.2336994887180488   54.0834965914542352
Ar   19.7864988070088366    6.5954996591453767   56.7216964210269552
Ar   17.1482989774361165    9.2336994887180488   56.7216964210269552
Ar    1.3190999999999999    1.3190999999999999   59.3598962505997321
Ar    3.9572998295726887    3.9572998295726887   59.3598962505997321
Ar    3.9572998295726887    1.3190999999999999   61.9980960801724237
Ar    1.3190999999999999    3.9572998295726887   61.9980960801724237
Ar    6.5954996591453767    1.3190999999999999   59.3598962505997321
Ar    9.2336994887180488    3.9572998295726887   59.3598962505997321
Ar    9.2336994887180488    1.3190999999999999   61.9980960801724237
Ar    6.5954996591453767    3.9572998295726887   61.9980960801724237
Ar   11.8718993182907564    1.3190999999999999   59.3598962505997321
Ar   14.5100991478634356    3.9572998295726887   59.3598962505997321
Ar   14.5100991478634356    1.3190999999999999   61.9980960801724237
Ar   11.8718993182907564    3.9572998295726887   61.9980960801724237
Ar   17.1482989774361165    1.3190999999999999   59.3598962505997321
Ar   19.7864988070088366    3.9572998295726887   59.3598962505997321
Ar   19.7864988070088366    1.3190999999999999   61.9980960801724237
Ar   17.1482989774361165    3.9572998295726887   61.9980960801724237
Ar    1.3190999999999999    6.5954996591453767   59.3598962505997321
Ar    3.9572998295726887    9.2336994887180488   59.3598962505997321
Ar    3.9572998295726887    6.5954996591453767   61.9980960801724237
Ar    1.3190999999999999    9.2336994887180488   61.9980960801724237
Ar    6.5954996591453767    6.5954996591453767   59.3598962505997321
Ar    9.2336994887180488    9.2336994887180488   59.3598962505997321
Ar    9.2336994887180488    6.5954996591453767   61.9980960801724237
Ar    6.5954996591453767    9.2336994887180488   61.9980960801724237
Ar   11.8718993182907564    6.5954996591453767   59.3598962505997321
Ar   14.5100991478634356    9.2336994887180488   59.3598962505997321
Ar   14.5100991478634356    6.5954996591453767   61.9980960801724237
Ar   11.8718993182907564    9.2336994887180488   61.9980960801724237
Ar   17.1482989774361165    6.5954996591453767   59.3598962505997321
Ar   19.7864988070088366    9.2336994887180488   59.3598962505997321
Ar   19.7864988070088366    6.5954996591453767   61.9980960801724237
Ar   17.1482989774361165    9.2336994887180488   61.9980960801724237
Ar    1.3190999999999999    1.3190999999999999   64.6362959097450585
Ar    3.9572998295726887    3.9572998295726887   64.6362959097450585
Ar    3.9572998295726887    1.3190999999999999   67.2744957393179419
Ar    1.3190999999999999    3.9572998295726887   67.2744957393179419
Ar    6.5954996591453767    1.3190999999999999   64.6362959097450585
Ar    9.2336994887180488    3.9572998295726887   64.6362959097450585
Ar    9.2336994887180488    1.3190999999999999   67.2744957393179419
Ar    6.5954996591453767    3.9572998295726887   67.2744957393179419
Ar   11.8718993182907564    1.3190999999999999   64.6362959097450585
Ar   14.5100991478634356    3.9572998295726887   64.6362959097450585
Ar   14.5100991478634356    1.3190999999999999   67.2744957393179419
Ar   11.8718993182907564    3.9572998295726887   67.2744957393179419
Ar   17.1482989774361165    1.3190999999999999   64.6362959097450585
Ar   19.7864988070088366    3.9572998295726887   64.6362959097450585
Ar   19.7864988070088366    1.3190999999999999   67.2744957393179419
Ar   17.1482989774361165    3.9572998295726887   67.2744957393179419
Ar    1.3190999999999999    6.5954996591453767   64.6362959097450585
Ar    3.9572998295726887    9.2336994887180488   64.6362959097450585
Ar    3.9572998295726887    6.5954996591453767   67.2744957393179419
Ar    1.3190999999999999    9.2336994887180488   67.2744957393179419
Ar    6.5954996591453767    6.5954996591453767   64.6362959097450585
Ar    9.2336994887180488    9.2336994887180488   64.6362959097450585
Ar    9.2336994887180488    6.5954996591453767   67.2744957393179419
Ar    6.5954996591453767    9.2336994887180488   67.2744957393179419
Ar   11.8718993182907564    6.5954996591453767   64.6362959097450585
Ar   14.5100991478634356    9.2336994887180488   64.6362959097450585
Ar   14.5100991478634356    6.5954996591453767   67.2744957393179419
Ar   11.8718993182907564    9.2336994887180488   67.2744957393179419
Ar   17.1482989774361165    6.5954996591453767   64.6362959097450585
Ar   19.7864988070088366    9.2336994887180488   64.6362959097450585
Ar   19.7864988070088366    6.5954996591453767   67.2744957393179419
Ar   17.1482989774361165    9.2336994887180488   67.2744957393179419
Ar    1.3190999999999999    1.3190999999999999   69.9126955688904985
Ar    3.9572998295726887    3.9572998295726887   69.9126955688904985
Ar    3.9572998295726887    1.3190999999999999   72.5508953984633393
Ar    1.3190999999999999    3.9572998295726887   72.5508953984633393
Ar    6.5954996591453767    1.3190999999999999   69.9126955688904985
Ar    9.2336994887180488    3.9572998295726887   69.9126955688904985
Ar    9.2336994887180488    1.3190999999999999   72.5508953984633393
Ar    6.5954996591453767    3.9572998295726887   72.5508953984633393
Ar   11.8718993182907564    1.3190999999999999   69.9126955688904985
Ar   14.5100991478634356    3.9572998295726887   69.9126955688904985
Ar   14.5100991478634356    1.3190999999999999   72.5508953984633393
Ar   11.8718993182907564    3.9572998295726887   72.5508953984633393
Ar   17.1482989774361165    1.3190999999999999   69.9126955688904985
Ar   19.7864988070088366    3.9572998295726887   69.9126955688904985
Ar   19.7864988070088366    1.3190999999999999   72.5508953984633393
Ar   17.1482989774361165    3.9572998295726887   72.5508953984633393
Ar    1.3190999999999999    6.5954996591453767   69.9126955688904985
Ar    3.9572998295726887    9.2336994887180488   69.9126955688904985