LAMMPS (29 Sep 2021)
# FCC Argon LJ: e=119.8 kB, sigma = 3.405, rcut=8.51 (10.1103/PhysRevB.54.340)

units          metal
boundary       p p p
atom_style     atomic

read_data      fcc_lj_Ar_box-zeroed_shifted_DATA
Reading data file ...
  orthogonal box = (0.0000000 0.0000000 0.0000000) to (21.105599 21.105599 126.63359)
  2 by 2 by 10 MPI processor grid
  reading atoms ...
  1536 atoms
  read_data CPU = 0.015 seconds

pair_style     lj/cut 8.51
pair_coeff     * * 0.01032 3.405

variable T        equal  80
variable Tdamp    equal  0.1
variable Tseed    equal  12280329
variable dumpf    equal  100000

velocity     all create $T ${Tseed} mom yes rot yes dist gaussian
velocity     all create 80 ${Tseed} mom yes rot yes dist gaussian
velocity     all create 80 12280329 mom yes rot yes dist gaussian

thermo       1000
thermo_style custom step temp pe ke etotal press

dump           run_dump all xyz ${dumpf} dump_run.xyz
dump           run_dump all xyz 100000 dump_run.xyz
dump_modify    run_dump sort id element Ar format line "%s %21.16f %21.16f %21.16f"

dump           run_forces all custom ${dumpf} dump_run_forces.custom id type x y z fx fy fz
dump           run_forces all custom 100000 dump_run_forces.custom id type x y z fx fy fz
dump_modify    run_forces sort id element Ar format line "%4d %1d %21.16f %21.16f %21.16f %21.16f %21.16f %21.16f"


fix          nvt all nvt temp $T $T ${Tdamp}
fix          nvt all nvt temp 80 $T ${Tdamp}
fix          nvt all nvt temp 80 80 ${Tdamp}
fix          nvt all nvt temp 80 80 0.1
run 1000000
Neighbor list info ...
  update every 1 steps, delay 10 steps, check yes
  max neighbors/atom: 2000, page size: 100000
  master list distance cutoff = 10.51
  ghost atom cutoff = 10.51
  binsize = 5.255, bins = 5 5 25
  1 neighbor lists, perpetual/occasional/extra = 1 0 0
  (1) pair lj/cut, perpetual
      attributes: half, newton on
      pair build: half/bin/atomonly/newton
      stencil: half/bin/3d
      bin: standard
Per MPI rank memory allocation (min/avg/max) = 5.382 | 5.382 | 5.383 Mbytes
Step Temp PotEng KinEng TotEng Press 
       0           80    -128.3913    15.873146   -112.51816     300.5646 
    1000    83.881952   -112.44678    16.643381   -95.803399    2612.4162 
    2000    80.648976    -112.9962    16.001912   -96.994286    2518.9125 
    3000    77.330091   -112.71052    15.343398   -97.367118    2550.4634 
    4000    77.470926     -112.514    15.371341   -97.142659    2576.3894 
    5000    80.099081   -112.56842    15.892805    -96.67561    2576.3812 
    6000    79.080047    -113.3765    15.690614   -97.685888    2454.7386 
    7000    78.489457   -112.23474    15.573432   -96.661312    2622.9284 
    8000    78.966766   -112.62685    15.668137   -96.958711    2565.7004 
    9000    77.698671   -112.62624    15.416529   -97.209708    2565.2933 
   10000    76.741238   -112.59943    15.226561   -97.372871    2557.6717 
   11000    79.929232   -112.36144    15.859104   -96.502339    2609.7271 
   12000    77.176512   -112.68343    15.312925   -97.370506    2550.6292 
   13000    81.290596   -113.10735    16.129219   -96.978129    2505.1742 
   14000    80.103588   -112.69985    15.893699   -96.806149    2557.0997 
   15000     79.46686   -113.16446    15.767363   -97.397093    2484.2718 
   16000    79.460924   -112.66884    15.766185   -96.902652    2560.8981 
   17000    80.626262   -113.33614    15.997405    -97.33873    2471.6159 
   18000     82.22077   -113.23426    16.313778   -96.920477    2497.1088 
   19000    80.482659   -112.41838    15.968912    -96.44947    2608.2083 
   20000    79.537067   -112.43993    15.781293   -96.658635    2594.2041 
   21000    83.546194   -113.26252    16.576762   -96.685756    2493.0999 
   22000     80.21272   -112.77753    15.915352   -96.862179    2554.4935 
   23000    82.492176   -112.84649    16.367629   -96.478862     2544.432 
   24000    79.133163   -112.79243    15.701153   -97.091278    2539.6779 
   25000     81.05323   -112.71753    16.082122   -96.635411     2559.478 
   26000    77.874547   -112.37883    15.451426   -96.927401    2598.6924 
   27000    79.725573   -112.69551    15.818696   -96.876818    2559.1597 
   28000    81.635459   -112.49792    16.197644   -96.300274     2599.654 
   29000    80.407776    -112.5769    15.954054    -96.62285    2583.3119 
   30000    76.631331   -112.49491    15.204754   -97.290161     2577.783 
   31000    79.493677   -111.90321    15.772684   -96.130522     2680.151 
   32000    79.350493   -112.21651    15.744274   -96.472237    2629.3167 
   33000    79.497023   -112.99465    15.773348   -97.221305    2515.0037 
   34000    79.010173   -112.86821     15.67675   -97.191458    2532.9429 
   35000    79.210382   -113.18987    15.716474   -97.473399    2482.8406 
   36000    79.736276   -112.85535    15.820819    -97.03453    2540.0349 
   37000    78.225842   -113.01085    15.521127   -97.489723    2504.8167 
   38000    79.955992   -112.46128    15.864414   -96.596867    2591.9966 
   39000     81.46908   -112.31698    16.164632   -96.152346    2614.7538 
   40000    80.111553   -113.03172     15.89528   -97.136443    2508.8305 
   41000    80.105379   -112.48266    15.894055   -96.588601    2593.7366 
   42000    78.362803   -112.31771    15.548303   -96.769409    2610.8836 
   43000    80.529593   -112.62131    15.978225   -96.643084    2580.3758 
   44000    78.546024   -112.52209    15.584656   -96.937432     2576.073 
   45000    81.433112   -112.76797    16.157496   -96.610475    2558.1027 
   46000     82.06859   -112.54437    16.283584    -96.26079    2591.5146 
   47000    83.861647   -112.55269    16.639352   -95.913334    2594.6713 
   48000    79.599515   -112.70543    15.793684   -96.911744    2560.6631 
   49000    79.010343   -113.02007    15.676784   -97.343289    2510.7756 
   50000    79.241692   -113.10809    15.722687   -97.385407    2494.4215 
   51000    81.531255    -112.9939    16.176969    -96.81693    2521.3808 
   52000    80.388373   -112.32526    15.950205    -96.37506    2614.7323 
   53000    81.890824   -113.06373    16.248312   -96.815421    2517.0601 
   54000    80.368981   -112.53902    15.946357    -96.59266     2586.113 
   55000    78.012708   -112.78134    15.478839   -97.302497    2536.8311 
   56000    81.809048   -112.86073    16.232087   -96.628642    2544.3632 
   57000     78.47548   -112.39645    15.570659   -96.825792    2598.6742 
   58000    81.310916   -112.40576     16.13325   -96.272512     2605.988 
   59000    75.940222   -112.60256    15.067628   -97.534935     2553.824 
   60000    81.213551   -112.68251    16.113932   -96.568579    2564.2087 
   61000    79.064801   -112.96406    15.687589   -97.276466    2518.6105 
   62000    81.806081   -113.15767    16.231498   -96.926173    2503.7217 
   63000    77.569292   -113.11966    15.390858   -97.728805    2492.3687 
   64000    78.329383   -113.07289    15.541672   -97.531221    2501.5477 
   65000     80.83106    -112.8229     16.03804   -96.784856    2545.1386 
   66000    77.944973   -112.65016    15.465399   -97.184762    2558.5273 
   67000    80.006158   -113.18004    15.874368   -97.305671    2489.5838 
   68000    83.632251   -112.72363    16.593836   -96.129791    2566.6989 
   69000    82.481324     -113.042    16.365476   -96.676525    2518.2676 
   70000    79.329104   -113.28891     15.74003   -97.548878    2467.9757 
   71000    79.685208   -112.63568    15.810687   -96.824996    2562.2128 
   72000    77.817878   -113.34498    15.440182   -97.904796    2459.8181 
   73000    78.427194   -112.99517    15.561079    -97.43409    2510.8678 
   74000    80.538252   -112.73126    15.979943   -96.751317    2551.7886 
   75000    78.843714   -112.93854    15.643722   -97.294823    2515.1422 
   76000    81.811979   -112.45513    16.232668   -96.222464    2599.5137 
   77000    82.507666   -112.93996    16.370703   -96.569256    2537.4229 
   78000    81.284829   -113.54328    16.128074   -97.415208    2441.3002 
   79000     82.25068   -113.05256    16.319713   -96.732844    2517.1053 
   80000    77.919304   -112.54845    15.460306   -97.088144    2576.9982 
   81000    79.840052   -112.28668     15.84141   -96.445267    2615.2694 
   82000    80.992493   -112.78274    16.070071   -96.712665    2546.5908 
   83000    80.289742   -113.06707    15.930635   -97.136431    2509.8226 
   84000    79.534851   -112.81174    15.780853   -97.030882    2535.0551 
   85000    82.048467   -112.93454    16.279591   -96.654951    2537.1014 
   86000    78.821381   -113.05708    15.639291   -97.417789    2506.2335 
   87000    80.196127   -112.86125     15.91206   -96.949188    2539.2635 
   88000    82.272238   -112.81777     16.32399   -96.493778    2552.5569 
   89000    82.618511   -113.25923    16.392696   -96.866535    2492.0326 
   90000    77.307226   -113.10495    15.338861   -97.766085    2491.8049 
   91000    80.116458   -112.76716    15.896253    -96.87091    2551.7899 
   92000    81.672847   -112.78525    16.205063   -96.580183    2555.4355 
   93000    77.757718   -112.91828    15.428245   -97.490034    2518.9276 
   94000    79.816877   -112.68727    15.836812   -96.850454    2554.9085 
   95000    82.260874   -112.75722    16.321736   -96.435482    2559.4761 
   96000    77.169269   -112.17968    15.311488   -96.868188    2625.0699 
   97000    80.994363   -112.63598    16.070442   -96.565542    2573.5662 
   98000    82.285948   -112.69086    16.326711   -96.364147    2565.3699 
   99000    80.513834   -113.22196    15.975098   -97.246861    2483.4524 
  100000    78.932573   -112.77407    15.661353   -97.112722    2539.7456 
  101000    76.778929   -112.93755    15.234039   -97.703509    2509.7396 
  102000    76.687784   -112.53831    15.215955   -97.322351    2567.4879 
  103000    83.777776   -112.36997    16.622711   -95.747263    2625.8223 
  104000    81.486295   -113.18573    16.168048   -97.017685    2496.0211 
  105000    82.865716   -112.71456    16.441745   -96.272816    2571.3272 
  106000    79.534676   -113.16169    15.780819   -97.380874    2489.3175 
  107000    80.947649   -112.79507    16.061173   -96.733894     2545.451 
  108000    80.741446   -113.10964    16.020259   -97.089377    2501.1154 
  109000    81.663214   -112.79371    16.203151   -96.590563    2549.0454 
  110000    78.947194   -112.63077    15.664254   -96.966513    2567.7889 
  111000    82.081763   -112.73257    16.286197    -96.44637    2565.4969 
  112000    80.211859   -112.93162    15.915182   -97.016437    2528.9361 
  113000    79.669386   -113.04556    15.807547   -97.238013    2511.0591 
  114000    80.616024   -112.98127    15.995374   -96.985896    2519.9957 
  115000    79.242327   -112.96141    15.722813     -97.2386    2518.8999 
  116000      81.4153   -113.15385    16.153962   -96.999885    2500.4876 
  117000    82.727903   -112.92925    16.414401   -96.514846    2536.6714 
  118000    80.077169   -113.31142    15.888457   -97.422964    2470.6832 
  119000    79.853566   -112.37661    15.844091   -96.532521    2606.6834 
  120000    80.525173   -112.39365    15.977348   -96.416304    2601.3739 
  121000     81.86303   -113.01311    16.242798   -96.770316    2520.7457 
  122000    79.670029   -112.85971    15.807675   -97.052032    2534.3392 
  123000    82.788812   -113.06637    16.426486   -96.639884    2517.3481 
  124000    78.721881   -112.78654    15.619549   -97.166992    2542.3935 
  125000    78.665881   -113.20071    15.608438   -97.592272    2486.3765 
  126000    76.546137   -112.75692     15.18785   -97.569069    2536.9295 
  127000    81.468267   -113.18085    16.164471    -97.01638     2492.679 
  128000    83.722933   -112.85396    16.611829   -96.242127     2551.082 
  129000    77.307225   -113.06612    15.338861   -97.727256    2498.1063 
  130000    82.528839   -112.94589    16.374904   -96.570984     2529.617 
  131000    79.585537   -112.06556     15.79091    -96.27465    2648.4823 
  132000    79.488383   -112.68037    15.771634   -96.908741    2560.7208 
  133000    81.109648   -113.02876    16.093316   -96.935448    2510.4308 
  134000    77.467671   -112.25696    15.370695   -96.886261    2614.8832 
  135000    80.590636   -112.15209    15.990337   -96.161758    2644.9691 
  136000    80.037626    -112.9654    15.880611   -97.084789    2526.2673 
  137000    80.342504   -112.62993    15.941103   -96.688822    2577.5857 
  138000    81.301184     -112.829    16.131319   -96.697676    2544.9554 
  139000    80.693372   -112.73754    16.010721   -96.726817     2560.449 
  140000    81.470431   -113.22627      16.1649   -97.061366    2486.7223 
  141000    81.264672   -112.96164    16.124075    -96.83756    2521.4233 
  142000    79.715933   -112.44572    15.816783   -96.628934    2591.3048 
  143000    79.359435    -112.6866    15.746049   -96.940548    2567.6857 
  144000    80.930011   -112.80857    16.057673   -96.750901    2548.1699 
  145000    80.706414   -112.53889    16.013309   -96.525582    2588.0878 
  146000    77.774984   -112.08964    15.431671   -96.657972     2642.256 
  147000    83.699034   -112.77766    16.607087   -96.170573    2561.4426 
  148000    80.277423   -112.47836     15.92819   -96.550172    2589.6997 
  149000    79.964679   -112.38868    15.866138   -96.522545    2598.8627 
  150000    78.011372    -112.7865    15.478574   -97.307931    2537.4891 
  151000    78.925072   -112.95898    15.659865   -97.299111    2513.9621 
  152000    81.454286   -113.06095    16.161697   -96.899249     2506.061 
  153000    80.037317    -113.4633     15.88055   -97.582754    2449.4443 
  154000    79.417094   -112.67747    15.757489   -96.919985    2557.2433 
  155000     80.75602   -112.56694    16.023151   -96.543786    2577.9103 
  156000     79.24117      -112.66    15.722583   -96.937417    2561.2516 
  157000    80.178107   -112.63074    15.908485   -96.722255    2573.4463 
  158000    80.658905   -112.92122    16.003882   -96.917333    2531.0353 
  159000    78.753377    -112.7438    15.625798   -97.118004    2552.1673 
  160000    80.942078   -112.82627    16.060068   -96.766204    2542.5723 
  161000    81.892844   -112.63965    16.248713   -96.390938    2575.4142 
  162000    78.928212   -112.24897    15.660488   -96.588479    2622.8341 
  163000    81.608372   -112.75375     16.19227   -96.561483    2555.0385 
  164000    81.929336   -113.08281    16.255954   -96.826861    2510.0935 
  165000     79.50005   -112.99567    15.773949   -97.221724    2515.2341 
  166000    79.834581   -112.78703    15.840324   -96.946706    2546.6987 
  167000    81.145173   -112.79433    16.100364   -96.693963    2549.3355 
  168000    77.302858    -112.9879    15.337994   -97.649904    2506.5197 
  169000    80.838178   -112.78551    16.039452   -96.746055    2548.2486 
  170000    81.275338   -112.51607    16.126191   -96.389877    2583.7008 
  171000    77.550353   -112.91438    15.387101   -97.527281    2517.5842 
  172000    81.331725   -112.93512    16.137379   -96.797738     2524.402 
  173000    80.518301   -113.23339    15.975984   -97.257407    2485.2789 
  174000    77.194376   -112.93981     15.31647   -97.623337    2514.0865 
  175000    78.932648   -112.74976    15.661368   -97.088393    2547.8136 
  176000    78.096697    -112.2768    15.495503   -96.781296    2612.3061 
  177000    81.519895   -112.65706    16.174715   -96.482343      2573.99 
  178000    79.755019   -112.68079    15.824538    -96.85625    2565.6029 
  179000    79.417654   -112.68422      15.7576    -96.92662    2554.2133 
  180000     79.90486   -112.67667    15.854269   -96.822401    2561.4123 
  181000    78.755668   -113.26481    15.626253   -97.638558    2473.4248 
  182000    82.238638   -112.53951    16.317324   -96.222191    2594.9502 
  183000    80.840389   -112.75447    16.039891   -96.714583    2554.4266 
  184000    77.803533   -113.06712    15.437335   -97.629781    2499.5556 
  185000    82.379726   -113.02447    16.345318   -96.679149     2521.435 
  186000     77.34223   -112.63326    15.345806    -97.28745    2563.2323 
  187000    79.015121    -112.8579    15.677732   -97.180172    2536.7595 
  188000    82.729478   -112.64923    16.414713   -96.234516    2577.6822 
  189000    78.771939   -113.60352    15.629481   -97.974034    2418.4259 
  190000    80.642326    -112.5917    16.000593   -96.591111    2578.8247 
  191000    81.802663    -112.8778     16.23082   -96.646978    2542.9807 
  192000    82.172879   -112.06951    16.304276    -95.76523    2657.2178 
  193000    80.388661   -113.22079    15.950262   -97.270524    2486.9368 
  194000    82.917922   -112.59309    16.452103   -96.140983     2582.505 
  195000    78.358136   -112.68038    15.547376   -97.133005    2552.6998 
  196000    82.574946   -112.78322    16.384052   -96.399165    2549.6603 
  197000    79.275078   -112.50881    15.729311   -96.779502    2583.3193 
  198000    79.491732   -112.85697    15.772298   -97.084668    2535.7513 
  199000    80.298746    -112.4552    15.932421   -96.522782    2598.7719 
  200000    78.231812   -112.88165    15.522312   -97.359339    2526.3837 
  201000    79.958926   -112.83806    15.864996   -96.973061     2537.846 
  202000     78.79537   -112.60874     15.63413   -96.974607    2566.6743 
  203000    79.087682    -112.3525    15.692129   -96.660371    2603.9699 
  204000    80.115934   -112.43339    15.896149   -96.537237    2596.7281 
  205000    79.127161   -113.06747    15.699962   -97.367512    2501.2582 
  206000    78.756503   -113.00541    15.626418   -97.378996    2508.1161 
  207000    78.683697   -112.37891    15.611972    -96.76694    2606.0666 
  208000    81.141898   -112.71376    16.099715    -96.61405    2565.1969 
  209000     83.63649   -112.88088    16.594678   -96.286204    2552.1948 
  210000    80.013773   -112.73887    15.875879   -96.862992    2556.6328 
  211000    80.920085   -112.36926    16.055704   -96.313553    2611.5794 
  212000    82.448541   -112.58788    16.358971   -96.228911    2585.1681 
  213000    81.399817   -112.90462     16.15089   -96.753734    2532.8652 
  214000     80.56415   -112.70276    15.985081   -96.717679    2564.3756 
  215000    77.700503   -112.60767    15.416893   -97.190782    2559.6378 
  216000    80.831736   -112.93215    16.038174   -96.893979    2531.0098 
  217000    80.830504   -112.83792     16.03793   -96.799992    2542.5344 
  218000     80.84888   -112.85583    16.041576    -96.81425    2540.6404 
  219000    81.028692   -112.59433    16.077253   -96.517072    2577.2208 
  220000    79.714827   -112.20998    15.816563   -96.393421    2632.5067 
  221000    82.583656   -112.86826     16.38578   -96.482482    2550.6401 
  222000    80.851335   -113.18435    16.042063   -97.142288    2490.4945 
  223000    82.986079    -112.5115    16.465627   -96.045874    2594.7464 
  224000     78.06581   -112.91064    15.489375   -97.421264    2524.7581 
  225000    83.619168   -113.07385    16.591241   -96.482609    2518.5352 
  226000    80.112553   -112.18691    15.895478   -96.291429    2634.3917 
  227000    80.439629   -112.91799    15.960375   -96.957616    2529.1889 
  228000    77.855221   -112.61493    15.447591   -97.167339    2568.9163 
  229000    81.019264   -112.49685    16.075382   -96.421464     2596.754 
  230000    83.033857   -112.06592    16.475107   -95.590815    2655.9766 
  231000    83.382905   -113.33052    16.544363   -96.786158    2477.2316 
  232000     81.81449   -112.78023    16.233167   -96.547059    2556.0457 
  233000    80.077387   -112.54973      15.8885    -96.66123     2585.355 
  234000     80.63351   -112.78897    15.998843   -96.790129     2549.993 
  235000    77.243544   -112.11834    15.326225   -96.792112    2630.0832 
  236000    81.636702   -112.19445    16.197891   -95.996562    2635.2305 
  237000    79.073796   -112.56385    15.689374   -96.874478    2574.6719 
  238000    78.613825   -112.46603    15.598109   -96.867925    2589.4065 
  239000     80.81856   -112.41996     16.03556   -96.384403    2609.8984 
  240000    81.209844   -112.64945    16.113196   -96.536252    2571.8815 
  241000    78.141435    -112.6032     15.50438   -97.098823    2567.2814 
  242000    81.327652   -113.18497    16.136571   -97.048403    2492.0144 
  243000    84.475398   -112.73455    16.761129   -95.973424    2568.1002 
  244000    81.555375   -112.82986    16.181754   -96.648111    2548.2483 
  245000    79.349847   -112.90526    15.744146   -97.161111    2525.2664 
  246000    79.003824   -112.88801     15.67549   -97.212524    2526.8901 
  247000    83.132981   -112.34841    16.494774   -95.853632    2622.3962 
  248000    76.975128   -112.78465    15.272968   -97.511683    2537.2589 
  249000    76.066932   -112.58616    15.092769    -97.49339    2562.8681 
  250000    78.829814   -112.76504    15.640964   -97.124072    2545.5848 
  251000    80.212491   -112.65515    15.915307   -96.739847    2564.9353 
  252000    81.249893   -113.32246    16.121143   -97.201317    2472.1738 
  253000    82.085787   -112.53442    16.286996   -96.247428    2587.8578 
  254000    78.030835   -112.44657    15.482435   -96.964139    2584.1422 
  255000    83.029055   -112.63115    16.474154   -96.156997    2585.8988 
  256000     80.46976   -112.99293    15.966353   -97.026573    2520.3728 
  257000     80.84878   -112.35788    16.041556   -96.316322    2611.5922 
  258000    80.868512   -112.48414    16.045471   -96.438669    2595.2615 
  259000    77.475661   -113.01648    15.372281   -97.644198     2506.432 
  260000    80.534767   -112.73098    15.979251   -96.751731     2556.932 
  261000    80.226157   -113.45702    15.918019   -97.538997    2448.6129 
  262000    79.448711   -112.93065    15.763762   -97.166886     2529.117 
  263000    79.205357   -112.91531    15.715477   -97.199832    2526.9943 
  264000    77.304121   -112.38326    15.338245   -97.045019    2596.6861 
  265000    83.186561   -112.79963    16.505405   -96.294222    2550.8783 
  266000    80.403337   -112.44735    15.953174   -96.494181    2598.2867 
  267000    79.045321   -112.61324    15.683724   -96.929518    2564.5706 
  268000    81.403771    -112.8339    16.151674   -96.682223      2543.08 
  269000    78.079586   -112.87545    15.492108   -97.383339    2523.4409 
  270000    76.856404   -112.41598    15.249411   -97.166565      2589.26 
  271000    81.753977   -112.82229     16.22116   -96.601128    2545.7518 
  272000    81.458619   -112.70102    16.162557   -96.538461     2569.055 
  273000    80.556132    -112.3753     15.98349   -96.391813    2611.3541 
  274000    81.620499    -111.8795    16.194676   -95.684827    2683.0438 
  275000    77.762556   -112.67715    15.429205   -97.247945     2554.072 
  276000    78.826345   -112.82137    15.640276   -97.181096    2534.4484 
  277000    79.380698   -112.73282    15.750267   -96.982556    2558.1992 
  278000    78.040314    -113.1006    15.484316   -97.616289    2498.6696 
  279000    84.547244     -112.984    16.775384   -96.208619    2536.0062 
  280000    82.801983    -112.5702    16.429099     -96.1411    2591.7221 
  281000    81.613269   -112.26284    16.193241   -96.069596    2630.5638 
  282000    80.737892   -113.27262    16.019554   -97.253063    2480.0599 
  283000    79.077015    -112.0416    15.690012   -96.351588    2653.1759 
  284000    81.641794   -113.15404    16.198901    -96.95514    2497.5861 
  285000    81.511173   -112.79459    16.172984    -96.62161    2553.4243 
  286000    79.136757   -113.28061    15.701866   -97.578739    2469.4473 
  287000    76.722382   -112.45336     15.22282   -97.230537    2581.2947 
  288000    82.616953   -113.00012    16.392387   -96.607737    2533.1487 
  289000    78.925068   -113.19806    15.659864   -97.538199    2483.8023 
  290000    79.931281   -112.69194    15.859511   -96.832424    2559.6274 
  291000    80.598067   -113.16429    15.991811    -97.17248    2501.7205 
  292000    79.333554   -112.96184    15.740913   -97.220927    2524.3463 
  293000    81.460671   -113.27569    16.162964   -97.112729     2484.821 
  294000    80.576838   -113.49207    15.987599   -97.504469    2441.4221 
  295000    81.115702   -112.70584    16.094517   -96.611323     2564.313 
  296000    82.590924   -112.63505    16.387222   -96.247828    2578.8547 
  297000    80.298105   -113.27074    15.932294   -97.338445    2480.0053 
  298000    82.212191   -112.76755    16.312076   -96.455478    2551.4183 
  299000    81.067242   -113.03159    16.084902   -96.946688    2509.3841 
  300000    81.585808   -112.99437    16.187793    -96.80658    2525.2075 
  301000    80.204001   -113.07289    15.913623   -97.159271    2509.0153 
  302000    80.624681   -112.74566    15.997092   -96.748571    2558.3251 
  303000    81.032175   -112.95091    16.077944   -96.872962    2533.3738 
  304000    80.301384    -113.1969    15.932945   -97.263955    2489.7385 
  305000     79.52338   -113.06922    15.778578   -97.290637    2502.2401 
  306000    79.444098   -112.91345    15.762847   -97.150606    2526.5341 
  307000    80.907974   -113.44457    16.053301   -97.391264    2458.6581 
  308000    81.818992   -112.58642     16.23406    -96.35236    2576.9161 
  309000    81.534189   -112.59421    16.177551   -96.416663    2580.8286 
  310000    80.036678   -113.09923    15.880423   -97.218804    2494.3364 
  311000    82.462073   -113.07163    16.361656   -96.709978    2513.9189 
  312000     80.61095   -113.21305    15.994367   -97.218686    2481.7067 
  313000    80.882778   -112.66675    16.048302   -96.618446    2567.4072 
  314000     78.87986   -112.57971    15.650894   -96.928818    2570.9049 
  315000    80.943256   -112.92226    16.060301   -96.861963     2535.708 
  316000    83.130489   -112.46196     16.49428   -95.967683     2606.854 
  317000    79.572794   -113.00279    15.788382   -97.214409     2512.322 
  318000    78.414332   -112.66976    15.558526   -97.111232    2554.5033 
  319000    80.864681    -112.6479    16.044711   -96.603188    2565.8349 
  320000    80.575073   -112.86626    15.987249   -96.879015    2532.3433 
  321000    79.664508   -112.37296    15.806579   -96.566385    2596.2161 
  322000    80.719229   -112.69942    16.015851   -96.683568    2562.6307 
  323000    79.267256   -113.18776    15.727759   -97.460004    2485.7727 
  324000    78.085918   -112.75079    15.493364   -97.257425    2544.5288 
  325000    77.033772   -111.67925    15.284604    -96.39465    2696.6712 
  326000    79.256943   -112.39897    15.725713   -96.673257    2608.5952 
  327000    83.266286   -113.66617    16.521224   -97.144943    2430.9322 
  328000    78.863286   -113.06582    15.647605   -97.418215    2500.7173 
  329000    82.659015   -112.58603    16.400733   -96.185298      2582.58 
  330000    77.184132    -112.3785    15.314437   -97.064066    2594.0771 
  331000    77.516553   -112.75886    15.380394   -97.378461     2536.656 
  332000     77.01553   -112.96264    15.280984   -97.681656    2509.1039 
  333000    80.633469   -112.74305    15.998835   -96.744211    2554.8281 
  334000    80.779404   -113.26176    16.027791   -97.233971    2480.1235 
  335000    79.386849   -113.26238    15.751488   -97.510892    2471.3196 
  336000    80.204634   -112.41795    15.913748   -96.504198    2598.5427 
  337000     81.05663   -112.08239    16.082796   -95.999593    2652.0162 
  338000    79.374483   -112.67552    15.749034   -96.926488    2561.1343 
  339000    79.330782   -112.73325    15.740363   -96.992889    2548.6272 
  340000    78.634946   -113.06703      15.6023   -97.464733    2499.1953 
  341000    79.923311   -113.24713     15.85793   -97.389199    2482.7779 
  342000    74.551061   -112.92185    14.791998   -98.129853    2510.9113 
  343000    77.244009    -112.5248    15.326318   -97.198479    2576.1294 
  344000    79.929778    -112.9252    15.859213   -97.065983    2528.2714 
  345000    79.448538   -112.64605    15.763728   -96.882325    2567.1354 
  346000    80.233948   -112.86867    15.919564   -96.949102    2540.1554 
  347000    77.460273   -113.13335    15.369228   -97.764124    2488.8506 
  348000    81.797985    -113.5131    16.229892   -97.283207    2452.9236 
  349000    78.883698   -112.42155    15.651655   -96.769897    2599.8638 
  350000    80.194803      -113.08    15.911798   -97.168198    2505.4295 
  351000    79.619896   -112.83172    15.797728   -97.033993    2543.8617 
  352000    78.922618   -112.73104    15.659378   -97.071659     2555.997 
  353000    79.779801   -112.37479    15.829455   -96.545331    2606.6812 
  354000      77.8219   -113.10004     15.44098   -97.659056    2490.7283 
  355000    81.421366   -112.64572    16.155165   -96.490551    2576.0979 
  356000    79.297093   -113.40471    15.733679   -97.671029    2455.8673 
  357000     81.30493    -112.7195    16.132063   -96.587437    2561.5216 
  358000    80.005782   -112.58873    15.874293   -96.714441    2576.0239 
  359000    82.601833   -112.31687    16.389387   -95.927487    2625.2633 
  360000    78.137677    -112.8573    15.503634   -97.353665    2533.6444 
  361000    82.195214   -112.61254    16.308708   -96.303828    2579.7879 
  362000    78.771567   -112.75357    15.629407   -97.124162      2546.55 
  363000    80.045472    -112.5101    15.882168   -96.627928    2590.8082 
  364000    80.910407   -112.83961    16.053784   -96.785827    2540.9693 
  365000    80.417603   -112.95325    15.956004   -96.997245    2530.0212 
  366000    83.310698   -112.92453    16.530036   -96.394491    2538.5548 
  367000    82.779776   -112.48143    16.424693   -96.056741    2600.6567 
  368000    80.385608   -112.50504    15.949656    -96.55538    2590.8588 
  369000    79.185727   -113.02735    15.711582   -97.315772     2507.029 
  370000    80.588299   -112.95023    15.989873    -96.96036    2517.7354 
  371000    80.089588   -112.83764    15.890921   -96.946716    2538.2688 
  372000    79.721155   -113.32337    15.817819   -97.505552    2468.7673 
  373000     78.34553   -112.64693    15.544875   -97.102051    2562.4785 
  374000    80.991499    -113.0926    16.069873   -97.022724    2510.2315 
  375000     80.55355   -112.97831    15.982978   -96.995334     2520.152 
  376000    83.142406   -112.64276    16.496644    -96.14612    2581.5514 
  377000    78.760472   -112.39184    15.627206   -96.764637    2600.9402 
  378000    81.806533   -112.72268    16.231588    -96.49109     2562.823 
  379000    82.247984    -113.2371    16.319178   -96.917926    2494.5045 
  380000    80.358605   -112.99718    15.944298    -97.05288      2521.28 
  381000    79.045376   -112.44691    15.683735   -96.763176    2588.1731 
  382000    81.668691    -112.7722    16.204238   -96.567963    2552.7172 
  383000    80.341352   -112.58874    15.940875   -96.647865     2575.862 
  384000    81.960441   -112.95761    16.262125   -96.695486    2532.3397 
  385000    82.477064   -113.17298    16.364631   -96.808347    2495.9752 
  386000    81.934173   -112.77994    16.256913   -96.523028     2553.185 
  387000    77.296463   -112.18254    15.336725   -96.845817    2629.1952 
  388000    83.067364   -112.98425    16.481755     -96.5025    2528.7724 
  389000    79.144046   -113.58168    15.703312   -97.878372    2428.6005 
  390000    81.782478    -113.4105    16.226815   -97.183687    2464.4273 
  391000     81.43939   -112.54744    16.158741   -96.388697    2588.8372 
  392000    76.862996   -112.92727    15.250719   -97.676548    2512.4727 
  393000    80.663689   -112.73738    16.004831   -96.732544    2556.4642 
  394000    79.522541   -112.93415    15.778411   -97.155741    2524.3273 
  395000    81.028646   -112.90851    16.077244   -96.831271    2533.7628 
  396000    80.169037   -112.92129    15.906685     -97.0146    2526.5914 
  397000    79.449194   -112.48826    15.763858   -96.724399    2586.1285 
  398000    77.755851   -112.86923    15.427875   -97.441352    2523.7922 
  399000    81.138888   -112.56853    16.099117   -96.469409    2586.2531 
  400000    81.482664   -112.68832    16.167328   -96.520997    2565.3953 
  401000    76.787103   -112.88629    15.235661    -97.65063    2521.0847 
  402000    77.832899   -112.42533    15.443162   -96.982169    2592.3783 
  403000    77.825408   -112.23335    15.441676   -96.791672    2626.1722 
  404000    79.710883   -112.59012    15.815781   -96.774339    2577.6573 
  405000     81.32415   -112.81813    16.135876   -96.682259    2547.9975 
  406000    79.385291   -112.83392    15.751179   -97.082746     2540.398 
  407000    77.464099   -112.38307    15.369987   -97.013081    2601.0996 
  408000     79.43515   -113.32253    15.761071   -97.561461    2469.6701 
  409000    80.633221   -112.71687    15.998786    -96.71808    2559.6196 
  410000    78.451383   -112.77797    15.565878   -97.212088    2546.5274 
  411000     82.62261   -113.18273    16.393509    -96.78922    2504.5147 
  412000    78.810562   -112.59058    15.637144   -96.953438    2566.2263 
  413000    81.031543   -113.03635    16.077819   -96.958531    2516.4017 
  414000     82.13659   -113.55924    16.297076   -97.262166    2444.9157 
  415000    80.148731   -113.11718    15.902656   -97.214528    2502.8278 
  416000    79.577203   -112.46031    15.789257    -96.67105    2594.8716 
  417000    80.899372   -112.83379    16.051594   -96.782194    2541.4486 
  418000    80.150938   -112.75029    15.903094   -96.847198      2547.23 
  419000    80.753807   -112.48364    16.022712    -96.46093    2591.8189 
  420000    81.683246   -112.24067    16.207126   -96.033544    2634.8055 
  421000    79.727169   -112.69779    15.819012   -96.878778    2555.6231 
  422000    78.650373   -112.42801    15.605361   -96.822649    2593.1562 
  423000    79.515813    -112.7392    15.777076   -96.962127    2551.5158 
  424000    82.548058   -112.55921    16.378717   -96.180497    2592.0809 
  425000    80.838834   -113.02152    16.039582   -96.981941     2514.692 
  426000    80.401668   -112.89558    15.952842   -96.942733    2531.4213 
  427000    77.402672   -112.85365    15.357799   -97.495855     2526.977 
  428000    79.806449   -112.97651    15.834742   -97.141765    2518.1888 
  429000    77.561188   -112.97294     15.38925   -97.583691     2506.059 
  430000    80.887675   -112.59824    16.049273   -96.548962     2577.034 
  431000    79.751639   -113.02127    15.823867   -97.197405     2512.593 
  432000    81.800105   -112.43522    16.230312   -96.204909     2607.603 
  433000    79.006065   -112.66329    15.675935   -96.987352    2564.2466 
  434000    77.744533   -112.84182    15.425629   -97.416195    2530.4995 
  435000    79.832235    -112.8006    15.839859   -96.960742    2544.5849 
  436000    79.802172   -112.63111    15.833894   -96.797217     2569.528 
  437000    83.289037   -112.25493    16.525738   -95.729196    2635.8254 
  438000    82.544219   -112.80018    16.377955   -96.422223    2550.1777 
  439000    79.906734   -112.67136     15.85464   -96.816721    2563.6464 
  440000    79.044944   -112.52496    15.683649   -96.841306    2585.4836 
  441000    83.057577   -113.02757    16.479813   -96.547753    2522.7351 
  442000     78.38765   -112.42883    15.553232     -96.8756    2589.5225 
  443000    80.660104   -112.77435     16.00412   -96.770232    2550.8908 
  444000    80.996048     -112.956    16.070776    -96.88522    2529.5315 
  445000    80.588835    -112.7101    15.989979   -96.720118    2556.6925 
  446000    80.240232    -112.8439    15.920811   -96.923088    2538.1494 
  447000    79.979231   -112.44458    15.869025   -96.575556    2596.3751 
  448000    80.627843   -113.03121    15.997719   -97.033496    2521.2796 
  449000    83.886707   -112.75582    16.644324   -96.111493    2570.7766 
  450000    82.508221   -112.54754    16.370813   -96.176726    2590.2021 
  451000      78.7705   -112.80224    15.629195   -97.173046    2542.2096 
  452000    80.576542   -112.62429     15.98754   -96.636748    2575.8175 
  453000    79.606711   -112.92689    15.795112   -97.131782    2527.9042 
  454000     79.92849   -112.26341    15.858957   -96.404454    2623.2165 
  455000    81.651982   -113.01417    16.200923   -96.813249    2520.9248 
  456000    78.328228   -113.51927    15.541442   -97.977832     2435.145 
  457000     81.24541   -113.23512    16.120253   -97.114871    2491.7037 
  458000    76.909745   -112.76714    15.259995   -97.507144    2535.9783 
  459000    80.292881    -113.2767    15.931258   -97.345441    2483.8783 
  460000    78.094482   -112.99651    15.495064   -97.501446    2510.8472 
  461000    80.745513   -112.90885    16.021066   -96.887788    2530.8179 
  462000    78.983251   -112.59311    15.671408   -96.921697    2571.3784 
  463000    80.225199   -113.14424    15.917828   -97.226416    2487.8974 
  464000    79.526811   -112.84907    15.779258   -97.069811    2532.5741 
  465000    79.852801   -112.89435    15.843939   -97.050406    2532.1098 
  466000     81.95029   -112.35417    16.260111   -96.094059    2613.0203 
  467000    75.649007    -112.3651    15.009846   -97.355249    2596.9647 
  468000    79.684593   -112.57999    15.810564   -96.769423    2579.7465 
  469000    80.052775    -113.0373    15.883617   -97.153687    2505.4402 
  470000    83.015833   -112.28466     16.47153   -95.813131    2626.0957 
  471000    79.762245   -113.15086    15.825972   -97.324889    2490.2285 
  472000    78.591444   -112.53186    15.593668   -96.938191    2576.4478 
  473000    81.913033   -113.26828    16.252719   -97.015565    2489.9918 
  474000    80.646739   -112.71409    16.001468   -96.712618    2560.8781 
  475000    80.958772   -112.78471     16.06338   -96.721332    2548.7875 
  476000    79.289465   -113.01206    15.732165   -97.279898    2503.8638 
  477000    81.177021   -112.94167    16.106684   -96.834987    2528.5149 
  478000     80.63072    -112.5101     15.99829   -96.511813    2592.1772 
  479000    81.557315   -112.70027    16.182139   -96.518135    2572.2134 
  480000    79.220553   -113.13314    15.718492   -97.414651    2497.9909 
  481000    78.602944   -112.47737     15.59595   -96.881417     2587.494 
  482000     78.92311   -112.71303    15.659475   -97.053553    2553.2951 
  483000    80.585259   -112.77298     15.98927   -96.783712    2554.3298 
  484000    77.329129   -113.07012    15.343207   -97.726914    2499.2648 
  485000    79.938101   -113.03071    15.860864   -97.169848    2511.1938 
  486000    77.727962   -112.41139    15.422341   -96.989046    2593.1957 
  487000    77.318328   -113.04626    15.341064   -97.705196    2503.6848 
  488000    82.368704   -112.49627    16.343131   -96.153142    2598.8223 
  489000    81.058006   -113.29721    16.083069   -97.214136    2482.4917 
  490000    81.299333   -112.32188    16.130952   -96.190923    2626.0173 
  491000    80.100088   -112.75534    15.893005   -96.862332    2553.0109 
  492000    79.684371    -112.5856     15.81052   -96.775083    2573.0744 
  493000    78.665929   -112.45732    15.608447   -96.848878    2590.9021 
  494000    79.927924   -112.79538    15.858845   -96.936538    2545.2905 
  495000    81.107784   -112.50336    16.092946   -96.410413    2585.3341 
  496000    78.918112   -112.66598    15.658484   -97.007493    2560.3021 
  497000    79.560544   -112.78237    15.785951   -96.996417    2543.9122 
  498000    79.506452   -113.32743    15.775219   -97.552214    2468.1321 
  499000    79.538664   -112.41615     15.78161   -96.634544    2598.7373 
  500000     80.30042   -112.67365    15.932753   -96.740893    2567.1041 
  501000    78.316924   -112.71315    15.539199   -97.173952    2552.1917 
  502000    78.957146   -113.48158    15.666229   -97.815347    2441.9177 
  503000    81.185508   -112.83926    16.108368   -96.730891    2546.1476 
  504000    77.640746   -112.57964    15.405036   -97.174601    2569.1667 
  505000    76.842649   -112.62574    15.246682   -97.379058     2561.106 
  506000    81.524919   -112.88241    16.175711   -96.706697    2543.4859 
  507000    78.386937   -112.84769    15.553091   -97.294599    2535.6483 
  508000    81.393272   -112.85705    16.149591   -96.707455    2538.4821 
  509000    78.905331   -112.60792    15.655948   -96.951975     2567.417 
  510000     82.13479   -112.69689    16.296719   -96.400167    2566.7142 
  511000    79.187553   -112.89267    15.711945   -97.180729    2525.1728 
  512000    80.129376   -112.38976    15.898816   -96.490945    2604.2562 
  513000    77.862142    -112.6698    15.448964   -97.220837    2561.6724 
  514000    79.365433    -112.9011    15.747239    -97.15386    2528.9449 
  515000     80.10147   -112.76544    15.893279   -96.872164    2550.5386 
  516000    75.523225    -112.5237     14.98489    -97.53881    2568.2641 
  517000    78.283359   -112.69123     15.53254   -97.158691    2557.9256 
  518000    78.981541   -113.12606    15.671069   -97.454986    2494.8417 
  519000    78.286013   -112.59019    15.533066   -97.057123    2571.9084 
  520000    78.818485   -112.80625    15.638716   -97.167533    2537.6071 
  521000    80.800382   -112.93267    16.031953   -96.900714    2533.7405 
  522000    78.739972   -113.47391    15.623138   -97.850776    2444.8612 
  523000     78.82862   -112.62383    15.640727   -96.983102    2563.9932 
  524000    79.403841   -112.67669    15.754859   -96.921835    2563.0882 
  525000    77.845682   -112.50281    15.445698   -97.057111    2574.9403 
  526000    80.374436   -112.93281    15.947439   -96.985368     2530.144 
  527000    78.375933   -112.52743    15.550908   -96.976523    2575.8088 
  528000    79.851531    -112.8354    15.843687   -96.991711    2538.7259 
  529000    80.224038    -112.8498    15.917598   -96.932204    2541.6136 
  530000    80.141812   -112.09398    15.901283   -96.192692    2652.5083 
  531000    82.520981   -112.78836    16.373344   -96.415019     2551.694 
  532000    79.084355   -112.71757    15.691469   -97.026102     2551.751 
  533000    76.612431   -113.10665    15.201004   -97.905651    2483.7148 
  534000    76.956274   -112.80424    15.269227   -97.535015    2534.3115 
  535000    80.082174    -112.5051     15.88945   -96.615646    2583.9191 
  536000    80.376568   -112.41265    15.947862   -96.464785    2599.5902 
  537000    82.593654   -112.81458    16.387764   -96.426821    2557.4691 
  538000    77.707329   -112.77057    15.418247   -97.352322    2537.2847 
  539000    78.536274   -112.37741    15.582722    -96.79469    2598.4335 
  540000    79.932481   -112.49294    15.859749   -96.633186    2589.8709 
  541000    81.137273   -112.68964    16.098797   -96.590842    2569.8464 
  542000    82.735221   -112.36268    16.415853   -95.946832    2621.0198 
  543000    79.541619   -112.37433    15.782197   -96.592132    2605.2504 
  544000    82.258066   -112.61473    16.321179   -96.293556     2579.299 
  545000    80.037919   -112.87879    15.880669   -96.998121    2537.4239 
  546000    81.224844   -112.67002    16.116172   -96.553844    2568.7623 
  547000    77.716366   -113.33875     15.42004   -97.918714    2456.2956 
  548000    80.508819   -113.18051    15.974103   -97.206409    2497.7467 
  549000    81.606191   -112.78063    16.191837   -96.588797    2557.4736 
  550000    78.541052    -112.5376     15.58367   -96.953931    2579.1606 
  551000     78.73468   -112.26973    15.622088   -96.647644    2618.1406 
  552000    81.307834   -112.79974    16.132639     -96.6671    2547.1767 
  553000    80.064066   -112.96896    15.885857   -97.083107    2525.2577 
  554000    81.818734   -113.44156    16.234009   -97.207549    2464.8713 
  555000    79.367949   -113.20306    15.747738   -97.455318    2486.2155 
  556000    78.323183   -112.63394    15.540441   -97.093499    2564.8827 
  557000    78.636128   -112.33762    15.602534   -96.735084    2608.9532 
  558000    80.206443   -112.68286    15.914107   -96.768751    2560.1133 
  559000     78.19386   -112.87262    15.514782   -97.357837    2528.0102 
  560000    79.820418   -112.60568    15.837514    -96.76817     2572.949 
  561000    78.956458   -112.69332    15.666092   -97.027232    2557.8065 
  562000    77.256859   -113.26589    15.328867   -97.937025    2465.9315 
  563000    79.096258   -113.32839    15.693831   -97.634561    2468.5707 
  564000    80.600707   -113.37102    15.992335   -97.378682    2467.0162 
  565000    80.963137    -113.3331    16.064246   -97.268851    2466.7932 
  566000     76.99343   -112.84756    15.276599   -97.570965    2527.1411 
  567000    80.287149   -112.81576     15.93012   -96.885645    2548.6573 
  568000    80.850871   -112.86177    16.041971     -96.8198    2539.0914 
  569000    80.419316    -113.2804    15.956344   -97.324057     2478.977 
  570000    80.965104   -112.85158    16.064636   -96.786944    2543.8612 
  571000    80.041688   -113.27718    15.881417   -97.395764    2485.7885 
  572000    76.825001    -113.0921    15.243181   -97.848917    2494.6377 
  573000    80.664398    -112.6316    16.004972   -96.626625    2570.9842 
  574000    82.395548   -113.12383    16.348457    -96.77537    2504.8156 
  575000    80.202652    -113.2602    15.913355   -97.346849    2479.8275 
  576000    84.009823   -112.78261    16.668752    -96.11386    2565.0058 
  577000    80.897547    -112.9013    16.051232   -96.850072    2534.7144 
  578000    81.526664   -112.90444    16.176058   -96.728385    2536.1928 
  579000    80.856407   -112.69091    16.043069   -96.647846    2567.8161 
  580000    77.819529   -112.62158    15.440509   -97.181073    2562.4536 
  581000    76.828704   -112.99859    15.243915   -97.754676    2504.1397 
  582000    81.688696   -112.74622    16.208207   -96.538011    2561.1725 
  583000    79.513237   -112.46584    15.776565   -96.689279    2595.6439 
  584000    81.620136   -113.44825    16.194604   -97.253642    2456.5115 
  585000    79.077013   -112.12274    15.690012   -96.432732     2633.345 
  586000    79.147428    -112.9184    15.703983   -97.214412    2522.8197 
  587000    80.932387   -113.17598    16.058145   -97.117836    2491.6563 
  588000    76.844651   -112.75489    15.247079   -97.507809    2546.6815 
  589000    81.186705   -112.68445    16.108605    -96.57585    2571.6729 
  590000    81.819165   -112.69757    16.234094   -96.463476    2568.2014 
  591000    81.801663   -112.64061    16.230622   -96.409991    2575.0336 
  592000    80.620367   -112.63561    15.996235    -96.63937    2574.4516 
  593000     79.52101   -112.33774    15.778107   -96.559629    2613.8792 
  594000    79.326803   -112.43192    15.739574   -96.692343    2594.8986 
  595000     80.38157   -113.41133    15.948855   -97.462477    2458.3853 
  596000    79.620381   -112.79793    15.797824   -97.000105    2544.9436 
  597000    81.245917   -112.77198    16.120354    -96.65163    2553.1848 
  598000    79.173137   -112.56836    15.709084   -96.859274     2577.869 
  599000    82.399053   -112.71709    16.349152   -96.367942    2570.1338 
  600000    79.924262   -112.65366    15.858118   -96.795542    2571.1429 
  601000    80.794718   -112.58142    16.030829    -96.55059    2579.7472 
  602000    81.309687   -113.16598    16.133007   -97.032973    2494.0652 
  603000    78.915502    -112.6075    15.657966    -96.94953    2568.0027 
  604000     80.20099   -112.57722    15.913025   -96.664194     2581.026 
  605000    79.173221   -112.26323    15.709101    -96.55413    2619.9145 
  606000    79.477332   -113.24171    15.769441   -97.472264     2478.654 
  607000    80.446375   -112.62792    15.961713   -96.666208    2567.2374 
  608000     78.19002   -112.68715     15.51402   -97.173133    2558.4205 
  609000     83.38625   -113.37377    16.545026   -96.828748    2475.5764 
  610000    74.725136   -113.03736    14.826537   -98.210826    2490.5953 
  611000    81.770295   -112.98296    16.224398   -96.758567    2523.2854 
  612000    79.755159   -112.71568    15.824566   -96.891113    2554.2358 
  613000    80.390811   -112.88793    15.950688   -96.937246    2530.9337 
  614000    83.352118   -112.03419    16.538254   -95.495935    2672.1817 
  615000     78.00551   -112.46209     15.47741   -96.984679    2588.0912 
  616000    80.076933   -112.87902     15.88841   -96.990612    2534.4539 
  617000    81.064981   -113.07765    16.084453   -96.993193    2510.2571 
  618000     77.47387   -113.10224    15.371925   -97.730311     2497.051 
  619000    78.633749   -112.84785    15.602062   -97.245785    2533.4468 
  620000    80.568528   -113.12479     15.98595   -97.138845     2503.514 
  621000      80.5392   -112.30656    15.980131   -96.326432    2611.0038 
  622000    78.848472   -112.94892    15.644666   -97.304252    2519.6154 
  623000    80.561579   -112.63018    15.984571   -96.645614    2567.9072 
  624000    78.123114   -112.96198    15.500745   -97.461239    2516.2794 
  625000    78.122094   -112.50552    15.500542   -97.004978     2580.235 
  626000    80.050085   -112.92012    15.883083    -97.03704    2522.6121 
  627000    78.838654   -112.59119    15.642718   -96.948471    2572.3904 
  628000    79.544293   -112.70385    15.782727   -96.921127    2555.7761 
  629000    78.132303   -112.34737    15.502568   -96.844803    2599.1017 
  630000    78.506281   -112.31671    15.576771   -96.739941    2616.6752 
  631000    82.213611   -112.74467    16.312358   -96.432309    2561.7182 
  632000    81.122996   -112.90712    16.095964   -96.811154    2524.8923 
  633000    80.970768   -112.59765     16.06576   -96.531889    2571.3536 
  634000    79.136956   -113.15192    15.701906   -97.450015    2494.7605 
  635000    78.021842   -113.27504    15.480651   -97.794391    2470.5003 
  636000    82.139583   -112.17705     16.29767   -95.879377     2642.464 
  637000    78.519919   -112.39557    15.579477   -96.816092     2599.609 
  638000    83.071616   -113.29671    16.482598   -96.814109     2489.086 
  639000    80.275948   -112.93769    15.927898   -97.009792    2530.1005 
  640000    82.280011   -112.66519    16.325533   -96.339653    2578.1216 
  641000    81.274357   -112.81346    16.125996   -96.687461     2557.993 
  642000     80.12123   -112.89449      15.8972   -96.997286    2533.7133 
  643000    83.047134    -112.9395    16.477741    -96.46176    2537.4331 
  644000    77.867849   -113.08329    15.450097   -97.633193    2494.5974 
  645000    77.809062   -113.10358    15.438432   -97.665151    2492.2677 
  646000    79.719641   -112.92773    15.817518   -97.110214    2525.4356 
  647000    82.773012   -113.39099    16.423351    -96.96764    2475.1353 
  648000    79.183386   -112.87149    15.711118   -97.160373    2533.1388 
  649000    81.697574    -112.9329    16.209969   -96.722928    2528.3579 
  650000    79.404028   -113.01506    15.754896   -97.260163    2515.8892 
  651000    82.069748   -112.57712    16.283813   -96.293306     2586.979 
  652000    78.771091   -112.76835    15.629313    -97.13904    2548.2534 
  653000     78.35184   -112.24235    15.546127   -96.696224    2613.8163 
  654000     81.88957   -112.78279    16.248064   -96.534724    2553.4769 
  655000    77.124598   -113.08168    15.302625   -97.779055    2495.4057 
  656000    78.895154   -112.46612    15.653929   -96.812189    2588.7232 
  657000    78.734341   -112.99384    15.622021   -97.371815    2507.7636 
  658000    80.947381   -112.59252     16.06112     -96.5314    2577.9369 
  659000     79.88913   -112.51358    15.851148    -96.66243    2581.9436 
  660000    82.758001   -112.92092    16.420373   -96.500548    2538.6187 
  661000    82.375902    -111.9788    16.344559   -95.634245    2674.0245 
  662000     80.97092   -113.14385     16.06579   -97.078059    2498.9623 
  663000    79.951324   -112.74939    15.863488   -96.885901    2549.7749 
  664000    79.736924     -112.589    15.820948   -96.768048    2580.7101 
  665000    78.866086   -113.31548    15.648161   -97.667318    2469.0223 
  666000    81.259879   -112.85749    16.123124   -96.734364     2540.797 
  667000    80.139628   -113.40961     15.90085   -97.508755    2450.0252 
  668000    79.678506   -113.07164    15.809357   -97.262279    2500.9176 
  669000    80.799274   -112.80118    16.031733   -96.769449    2545.8074 
  670000    79.518159    -113.2348    15.777542   -97.457262    2481.5231 
  671000    77.903483    -112.6632    15.457167   -97.206036     2556.017 
  672000    83.925935   -112.07754    16.652108   -95.425432     2662.441 
  673000    77.971803   -112.66788    15.470722   -97.197161    2555.5339 
  674000    81.952073   -112.65105    16.260465   -96.390584    2571.8429 
  675000    82.871057   -113.04448    16.442805   -96.601671    2522.3132 
  676000    79.188036   -112.81743     15.71204   -97.105388    2535.7032 
  677000     80.16187   -113.00289    15.905263   -97.097625    2520.5928 
  678000    79.517674   -112.49108    15.777446   -96.713633    2591.6366 
  679000    78.628836   -112.98113    15.601087   -97.380044    2512.0091 
  680000    79.506675    -113.2331    15.775263   -97.457839    2480.0941 
  681000    78.753833   -112.33442    15.625888   -96.708529    2610.8465 
  682000    81.520943   -112.16882    16.174923   -95.993895    2640.4995 
  683000    79.739284   -112.39138    15.821416   -96.569966    2607.5231 
  684000    79.947629   -112.80462    15.862755   -96.941869    2541.4247 
  685000    80.957074   -113.34395    16.063043   -97.280907    2469.8706 
  686000    80.152055   -112.59399    15.903316   -96.690672    2579.0651 
  687000     80.59129    -112.9086    15.990466   -96.918134    2528.9776 
  688000    79.215701   -112.42499     15.71753   -96.707463    2596.0433 
  689000    77.334626   -112.73034    15.344297   -97.386046    2547.4268 
  690000    81.200552   -112.35479    16.111352   -96.243433    2612.7181 
  691000    80.963719    -112.2058    16.064361   -96.141441    2635.5751 
  692000    80.927239   -112.76429    16.057123    -96.70717    2554.0975 
  693000    80.216866   -112.27578    15.916175   -96.359606    2621.3502 
  694000    79.530653    -112.6831    15.780021   -96.903075    2562.8925 
  695000    79.136805   -113.02945    15.701875   -97.327576     2510.108 
  696000    78.154769   -112.88717    15.507026   -97.380146    2526.2701 
  697000     76.47563   -112.10493     15.17386   -96.931066    2629.6107 
  698000    78.492344   -112.43993    15.574005   -96.865929    2591.6085 
  699000    80.975924   -112.77475    16.066783   -96.707972    2555.5183 
  700000     79.73385   -112.93986    15.820338    -97.11952    2522.2677 
  701000    82.806297   -112.92318    16.429955   -96.493224    2535.7486 
  702000    81.966647   -112.11052    16.263357    -95.84716    2647.0948 
  703000    77.163887   -112.74127     15.31042   -97.430854    2543.0303 
  704000    79.027049     -112.471    15.680098   -96.790901    2596.0622 
  705000    79.739408   -111.74328    15.821441   -95.921844    2698.6685 
  706000    81.579462   -112.93679    16.186534   -96.750252    2530.8569 
  707000    79.008601   -112.55088    15.676438   -96.874442    2575.6257 
  708000    80.401334   -112.75752    15.952776    -96.80474    2551.2681 
  709000    80.800518   -112.21706     16.03198   -96.185083    2629.2572 
  710000    79.894778    -112.9695    15.852268   -97.117235    2517.0736 
  711000     79.73363   -112.84001    15.820294   -97.019718    2534.1478 
  712000    83.756466   -112.38731    16.618483   -95.768826    2620.2027 
  713000    77.575919   -112.74203    15.392174   -97.349861    2542.5921 
  714000    81.158075   -113.26166    16.102924   -97.158734    2477.4225 
  715000    80.367918   -112.98126    15.946146    -97.03511    2516.2957 
  716000    81.579205   -112.40505    16.186483   -96.218567    2612.1856 
  717000    78.115545   -112.46522    15.499243    -96.96598    2589.4213 
  718000    78.064942   -112.62548    15.489203   -97.136281    2560.7847 
  719000    79.906838   -112.31439    15.854661    -96.45973    2612.5186 
  720000    81.940558   -112.91894     16.25818   -96.660765    2537.4406 
  721000    79.477445   -112.57055    15.769463   -96.801082    2575.3775 
  722000    80.412468    -113.1073    15.954985   -97.152312     2502.444 
  723000    80.760724   -113.17013    16.024084   -97.146045    2492.0654 
  724000    79.408765   -112.87203    15.755836   -97.116193     2534.528 
  725000    79.168223   -112.72103    15.708109   -97.012925    2557.0096 
  726000    79.888563   -112.89026    15.851035   -97.039227    2540.5433 
  727000    78.910351   -112.50858    15.656944   -96.851634    2580.8409 
  728000    78.471803   -112.99561     15.56993   -97.425679    2506.4217 
  729000    81.981821   -112.43205    16.266368   -96.165685    2595.6271 
  730000      79.4194   -112.49655    15.757946   -96.738605    2584.7344 
  731000    78.417878   -112.73776     15.55923   -97.178534    2551.0711 
  732000      84.3831   -112.40453    16.742816   -95.661713    2617.6936 
  733000    78.083428   -112.54538     15.49287   -97.052509     2574.722 
  734000     78.64091   -112.94699    15.603483   -97.343509    2511.8262 
  735000    80.108626   -112.65874    15.894699   -96.764041    2569.6221 
  736000    77.719168   -112.62007    15.420596   -97.199477    2565.6151 
  737000    78.206377   -112.96437    15.517265   -97.447107      2512.96 
  738000    80.765671   -113.03133    16.025066   -97.006263    2520.2282 
  739000    80.519394   -112.92088    15.976201   -96.944678    2534.0944 
  740000    81.052257   -112.31048    16.081929    -96.22855    2619.5198 
  741000    79.917912    -112.9652    15.856858   -97.108345    2522.0453 
  742000    79.530665   -113.07939    15.780023   -97.299366    2501.0424 
  743000    80.168243   -112.52681    15.906528   -96.620283    2579.6698 
  744000     78.99973   -112.69808    15.674678   -97.023398    2552.6844 
  745000    79.817952   -112.58011    15.837025   -96.743088    2574.8803 
  746000    79.312313   -112.73149    15.736699   -96.994791    2550.7696 
  747000    79.899871   -112.31731    15.853279   -96.464028    2616.1047 
  748000    79.831054   -112.85856    15.839624   -97.018935    2536.3043 
  749000    77.550517   -112.26099    15.387133   -96.873859    2617.0006 
  750000    79.448244   -113.08437     15.76367   -97.320704    2499.4755 
  751000    81.325298   -112.31441    16.136104   -96.178302    2620.9988 
  752000    80.847961   -113.10598    16.041393   -97.064591    2499.5723 
  753000    80.783709   -112.49213    16.028645   -96.463486    2588.8743 
  754000    80.258821   -112.84595      15.9245   -96.921448    2539.0851 
  755000    77.734663   -113.15506     15.42367   -97.731387    2484.8013 
  756000    79.674327   -112.66082    15.808528   -96.852293    2560.9734 
  757000    81.060497   -112.88463    16.083564   -96.801062    2538.5512 
  758000    82.234453   -113.24126    16.316493   -96.924765    2489.0061 
  759000    77.874834   -112.71588    15.451482   -97.264401    2554.1303 
  760000    81.821409   -112.84126    16.234539    -96.60672    2544.3421 
  761000    80.180109   -112.97471    15.908882   -97.065832     2519.826 
  762000    83.772507   -112.84517    16.621665   -96.223503     2548.177 
  763000     81.85474    -112.6895    16.241153   -96.448349    2573.2333 
  764000     79.22169    -112.9993    15.718718   -97.280582    2512.2522 
  765000    79.903338   -112.56775    15.853967   -96.713779    2570.6318 
  766000    79.253597   -113.13606    15.725049   -97.411011    2499.3133 
  767000     80.93198   -112.81266    16.058064   -96.754591     2549.596 
  768000    78.856192   -112.34811    15.646198   -96.701912    2610.4374 
  769000    81.381292   -112.98552    16.147214   -96.838302    2526.1874 
  770000    80.346847   -112.55759    15.941965   -96.615628    2582.6361 
  771000    79.286422   -113.22089    15.731562   -97.489323    2486.8925 
  772000    81.515061   -112.62978    16.173756   -96.456023    2585.1008 
  773000    79.577958   -112.67711    15.789407   -96.887702    2562.0754 
  774000    80.598177   -112.99313    15.991833   -97.001294    2520.5794 
  775000    77.883162   -112.96194    15.453135   -97.508808    2515.9951 
  776000    81.615942   -113.22506    16.193772   -97.031287    2487.3972 
  777000    78.416719   -112.86932       15.559   -97.310323    2534.1414 
  778000    80.791924   -112.91168    16.030275   -96.881405    2537.9707 
  779000     80.51407   -112.10987    15.975145   -96.134726    2644.5242 
  780000     77.53002   -112.86453    15.383066   -97.481466     2526.396 
  781000    78.021007   -113.05758    15.480485   -97.577091    2501.3521 
  782000    80.657177   -112.87158    16.003539    -96.86804    2530.0481 
  783000    79.176076   -112.80576    15.709668   -97.096091    2544.9549 
  784000    77.051521   -112.72401    15.288125   -97.435884    2538.2363 
  785000    79.538659   -112.18244    15.781609   -96.400827    2637.0118 
  786000    77.312781   -112.47576    15.339963   -97.135793    2585.7976 
  787000    79.506812   -112.96048     15.77529   -97.185193    2521.7592 
  788000    81.151333   -112.64381    16.101587   -96.542221    2575.7437 
  789000    76.657743   -112.29489    15.209994   -97.084894    2606.3088 
  790000    77.821497   -112.96382      15.4409   -97.522919    2513.1955 
  791000    78.990875   -112.31349    15.672921    -96.64057    2613.0663 
  792000    80.615653   -113.03899      15.9953    -97.04369    2515.8033 
  793000    80.703953   -112.49874     16.01282   -96.485922    2593.8625 
  794000    81.485584   -112.71464    16.167907   -96.546733    2563.0935 
  795000    80.333854    -112.9494    15.939387   -97.010012    2529.5498 
  796000    80.013932   -112.75407     15.87591   -96.878158    2552.5416 
  797000    81.212598   -111.96518    16.113743   -95.851441    2670.9935 
  798000    78.044641   -112.70727    15.485175   -97.222091    2549.2648 
  799000    79.630289   -112.72519     15.79979   -96.925404    2555.5542 
  800000    81.835332   -112.52513    16.237302   -96.287829    2594.2539 
  801000     81.47955   -112.73961     16.16671   -96.572898    2561.4983 
  802000    79.189009   -112.33587    15.712234   -96.623639    2606.0698 
  803000    80.834083   -113.15616     16.03864   -97.117518     2494.091 
  804000    77.520396   -112.88482    15.381157   -97.503663    2523.9027 
  805000    78.599134   -113.03736    15.595194   -97.442165    2507.4189 
  806000    80.009788   -113.47724    15.875088   -97.602154    2446.2788 
  807000    80.811862   -113.24266    16.034231   -97.208433     2480.882 
  808000    80.156697   -112.88664    15.904237   -96.982402    2532.3405 
  809000    80.803499   -112.98439    16.032572   -96.951822    2523.6247 
  810000    78.009301   -112.88297    15.478163   -97.404809    2529.6806 
  811000    81.786833   -112.52261    16.227679   -96.294926    2596.5852 
  812000    81.160295   -113.35099    16.103365   -97.247621     2468.615 
  813000     80.44227   -112.75105    15.960898   -96.790149    2554.6117 
  814000    80.300159   -112.24109    15.932702   -96.308384    2628.8161 
  815000    79.167392   -112.65795    15.707944   -96.950003    2562.9066 
  816000    77.537543   -112.32176    15.384559     -96.9372    2608.5793 
  817000    81.294284   -112.33221     16.12995   -96.202257     2619.284 
  818000    78.636541   -112.85317    15.602616   -97.250553    2527.6961 
  819000    81.547615   -113.13262    16.180215   -96.952405    2503.5771 
  820000    81.037525   -112.41218    16.079006   -96.333176    2604.1283 
  821000    79.671113   -112.69357     15.80789   -96.885681     2556.754 
  822000    82.882605   -113.10213    16.445096   -96.657035    2512.3583 
  823000    81.291127   -112.53212    16.129324   -96.402795    2587.1315 
  824000    79.778796   -112.90867    15.829256   -97.079417    2526.5453 
  825000    82.633615   -112.90513    16.395693   -96.509433    2542.5838 
  826000    79.315373   -112.63296    15.737306   -96.895658    2563.6026 
  827000    78.952765   -112.56206    15.665359     -96.8967    2573.9672 
  828000    76.815785   -112.71489    15.241352    -97.47354    2546.9233 
  829000    76.912428   -112.82881    15.260527   -97.568279    2532.3386 
  830000    77.863904   -113.14812    15.449314   -97.698807    2494.2216 
  831000    79.293974   -112.58405     15.73306   -96.850985    2571.7344 
  832000    80.611084   -112.85739    15.994394   -96.862994    2534.6688 
  833000    77.567607    -113.0056    15.390524   -97.615079    2504.0204 
  834000    77.151841   -112.85436     15.30803    -97.54633    2526.4256 
  835000    78.451381   -112.85735    15.565878   -97.291475    2527.8305 
  836000    78.197158   -113.15164    15.515436   -97.636205    2487.2198 
  837000     78.44549   -113.34579    15.564709    -97.78108    2459.7686 
  838000    80.353503   -112.91845    15.943286   -96.975165    2530.2471 
  839000     78.79229   -112.49018    15.633519   -96.856658     2582.346 
  840000    81.047867   -112.50783    16.081058   -96.426767     2589.122 
  841000    81.206376   -112.64055    16.112508   -96.528044    2572.6366 
  842000    75.594704   -113.10028    14.999072   -98.101204    2483.1896 
  843000    81.168732   -112.97164    16.105039   -96.866597    2523.5724 
  844000    80.310103   -113.13602    15.934675   -97.201346     2498.053 
  845000    79.217196   -112.59716    15.717826   -96.879334    2568.8196 
  846000    80.105721   -113.02804    15.894122   -97.133922    2507.5646 
  847000    81.858969   -113.28567    16.241992   -97.043683    2486.5516 
  848000    78.922248   -112.97614    15.659304   -97.316835    2519.1925 
  849000     79.27195   -112.73514     15.72869   -97.006445    2551.6008 
  850000    80.073101   -112.95574     15.88765   -97.068093    2516.1455 
  851000    80.588262   -112.46521    15.989865   -96.475345    2596.1226 
  852000    80.564783   -113.02018    15.985207   -97.034978    2515.8104 
  853000     82.26046    -112.4688    16.321653   -96.147151    2604.1066 
  854000    78.105286   -112.42887    15.497207   -96.931664    2587.6403 
  855000    79.751285   -112.73641    15.823797    -96.91261    2552.3828 
  856000    79.964317   -112.89529    15.866066   -97.029228    2535.6904 
  857000     80.94127   -112.57293    16.059907   -96.513025    2581.4722 
  858000    81.271469   -112.38943    16.125424   -96.264009    2612.2469 
  859000    78.718025   -112.67143    15.618784   -97.052645    2561.2376 
  860000    80.688613   -113.18761    16.009777   -97.177832    2496.2375 
  861000    80.387862   -112.86625    15.950103   -96.916147    2535.5897 
  862000    79.429424    -113.1388    15.759935   -97.378867    2497.2495 
  863000    80.405684   -112.62985    15.953639   -96.676213    2570.2606 
  864000     82.38061   -112.91845    16.345493   -96.572952    2537.7851 
  865000    80.382006   -112.24179    15.948941    -96.29285    2630.9932 
  866000    78.642734   -112.23386    15.603845   -96.630011    2619.6271 
  867000    77.621837    -112.6325    15.401284    -97.23122     2561.602 
  868000    81.167101   -112.65738    16.104715    -96.55266    2568.2514 
  869000    80.363641   -113.01873    15.945297   -97.073433    2513.8883 
  870000    79.860239   -112.69054    15.845415   -96.845127    2553.8336 
  871000    82.305723   -112.70721    16.330634   -96.376572    2559.8352 
  872000    82.204951   -112.57694     16.31064     -96.2663     2580.859 
  873000    79.988518   -112.68432    15.870868   -96.813454    2561.6232 
  874000    79.463428   -112.70627    15.766682   -96.939589    2558.3121 
  875000    76.736511   -112.60968    15.225623   -97.384062    2553.6133 
  876000    81.752022   -113.05627    16.220772     -96.8355    2508.6904 
  877000    80.800807   -112.58859    16.032037   -96.556551    2581.6266 
  878000    77.070775   -112.48634    15.291946   -97.194391    2580.6048 
  879000    81.294779   -112.94605    16.130048   -96.816003    2525.0215 
  880000    82.035239   -112.77001    16.276966   -96.493048    2556.5817 
  881000    79.688921   -112.93897    15.811423   -97.127545    2520.5341 
  882000    79.648418    -113.1413    15.803387    -97.33791    2494.7082 
  883000    81.600215   -113.31795    16.190651   -97.127294    2475.6398 
  884000    81.050342   -113.15461    16.081549   -97.073057    2495.1902 
  885000     83.46279   -112.68441    16.560213   -96.124192    2575.9781 
  886000    76.226849   -113.25211    15.124499   -98.127607    2461.3451 
  887000    79.884827   -112.80192    15.850294   -96.951631    2542.0608 
  888000    79.807691   -112.71893    15.834989   -96.883941    2558.3314 
  889000    81.364409   -113.15083    16.143864   -97.006969    2499.9441 
  890000    81.377247   -113.03801    16.146411   -96.891596    2514.8878 
  891000    78.760557     -112.724    15.627223    -97.09678    2555.8411 
  892000     82.29919   -112.95854    16.329338   -96.629201    2533.9561 
  893000    79.819974    -111.9742    15.837426   -96.136777    2660.0406 
  894000    80.415093   -112.64933    15.955506   -96.693826    2567.2224 
  895000    78.628935   -112.76152    15.601107   -97.160415    2542.4947 
  896000    77.954741   -112.65771    15.467337   -97.190377    2560.6439 
  897000     80.23716   -113.12756    15.920202   -97.207361    2497.6992 
  898000     78.52686    -112.7154    15.580854   -97.134544    2552.1541 
  899000    80.527473   -112.41181    15.977804   -96.434002    2601.0567 
  900000    83.305087   -113.22867    16.528922    -96.69975    2493.6122 
  901000    79.385504   -112.95502    15.751221   -97.203797    2516.1655 
  902000    81.573463    -113.3013    16.185343   -97.115958    2477.6274 
  903000    81.035813   -112.65877    16.078666   -96.580101    2564.0453 
  904000    79.905558   -112.77268    15.854407   -96.918269    2548.2236 
  905000    78.452896   -112.83784    15.566178   -97.271659    2534.2545 
  906000    82.428957   -112.61895    16.355086   -96.263864    2574.9747 
  907000    78.962511    -112.8607    15.667293   -97.193405      2532.06 
  908000    80.789663   -112.54428    16.029826   -96.514458    2584.7862 
  909000    79.666713   -112.93817    15.807017    -97.13115    2524.1109 
  910000    78.417358   -113.18333    15.559127   -97.624202    2482.3432 
  911000    79.003132   -113.21898    15.675353    -97.54363    2482.0127 
  912000    81.572333   -113.20488    16.185119   -97.019765    2494.1008 
  913000    80.347343   -112.59019    15.942064   -96.648124    2578.0671 
  914000    81.768768   -113.34863    16.224095    -97.12454    2472.6206 
  915000    80.651666   -112.72767    16.002446   -96.725222    2557.3937 
  916000    79.895418   -113.03833    15.852395   -97.185932    2509.3691 
  917000    80.572564   -112.35149    15.986751   -96.364736    2616.1362 
  918000    81.591166   -112.63728    16.188856    -96.44842    2574.4947 
  919000    80.641849   -112.46761    16.000498   -96.467109    2595.7304 
  920000    80.746078   -112.71877    16.021178   -96.697592    2560.6252 
  921000    79.158589    -112.9553    15.706198     -97.2491       2517.4 
  922000    81.139078   -112.72058    16.099155   -96.621422    2566.5808 
  923000    78.524563   -112.73954    15.580398   -97.159147    2549.4596 
  924000    76.724393   -112.75123    15.223218   -97.528008    2537.5968 
  925000    81.206516   -112.85589    16.112536   -96.743352    2542.6372 
  926000    82.329267   -112.92617    16.335306   -96.590863    2539.0501 
  927000    81.173665   -112.35527    16.106018    -96.24925    2616.5141 
  928000    78.882091   -112.68967    15.651337   -97.038335    2559.8542 
  929000     79.49817   -112.36007    15.773575   -96.586493    2608.2764 
  930000    80.508464   -112.97562    15.974032   -97.001586    2524.1725 
  931000    77.946105   -112.86203    15.465624   -97.396408    2531.1852 
  932000    80.688907   -113.17162    16.009835    -97.16179    2494.2803 
  933000    78.961942   -112.86907     15.66718    -97.20189    2527.8575 
  934000    79.482123   -112.90563    15.770392   -97.135241    2530.4165 
  935000    78.128986   -113.00455     15.50191   -97.502635    2508.6419 
  936000    77.751097   -112.24375    15.426931   -96.816814    2615.8726 
  937000    81.577146   -113.12568    16.186074   -96.939609    2504.6015 
  938000    79.885231   -112.99477    15.850374   -97.144398    2522.0595 
  939000    79.226319   -113.12749    15.719636   -97.407855    2494.6165 
  940000    80.079207   -112.76924    15.888862   -96.880378    2556.1417 
  941000    79.646499   -112.64385    15.803006   -96.840847    2567.7735 
  942000    81.351084   -113.73506     16.14122   -97.593844    2412.0215 
  943000    80.836956   -112.19714     16.03921   -96.157928    2637.0893 
  944000    78.012451   -112.26775    15.478788    -96.78896    2615.0985 
  945000    81.840466   -112.54495    16.238321   -96.306627    2591.0093 
  946000     78.87381   -112.59035    15.649694   -96.940655     2569.966 
  947000    79.176563   -112.74282    15.709764   -97.033059    2554.0708 
  948000    79.180253   -112.92288    15.710496   -97.212382    2524.8281 
  949000    78.537454   -112.70447    15.582956   -97.121517    2553.1912 
  950000    79.381916   -112.44367    15.750509   -96.693165    2594.2721 
  951000    79.269976   -112.82587    15.728299   -97.097573     2543.572 
  952000    78.086411    -112.8223    15.493462   -97.328838    2532.3083 
  953000    80.081822   -112.34406     15.88938    -96.45468     2613.083 
  954000    81.935458   -112.67538    16.257168   -96.418213    2569.8567 
  955000    81.288526   -112.74533    16.128808   -96.616521     2550.371 
  956000    78.919831   -112.66576    15.658825   -97.006937    2560.2628 
  957000    80.540341   -112.57788    15.980357   -96.597522    2579.2496 
  958000    79.950624   -112.94188    15.863349   -97.078527    2522.4727 
  959000     81.52276   -112.57111    16.175283   -96.395822    2583.8818 
  960000    78.308094    -112.8732    15.537447   -97.335757    2532.0997 
  961000    82.331348   -112.97112    16.335719   -96.635405    2533.7801 
  962000    80.960835   -112.73862    16.063789   -96.674828    2556.4927 
  963000    78.323674   -113.22951    15.540539   -97.688975    2478.1909 
  964000    78.172603   -112.88774    15.510564   -97.377173    2526.9603 
  965000    81.637418   -113.34197    16.198033   -97.143941    2471.7952 
  966000    81.399839   -113.30221    16.150894   -97.151312    2478.4059 
  967000    81.367657   -112.81833    16.144508   -96.673826    2542.0382 
  968000    79.074375   -112.51525    15.689489   -96.825766    2579.3978 
  969000    81.019702   -112.84681    16.075469   -96.771344    2542.5773 
  970000    79.442809   -112.67118    15.762591   -96.908588    2567.4318 
  971000    83.731816   -112.70726    16.613592   -96.093667    2577.0766 
  972000    78.671505   -112.99859    15.609553   -97.389036    2515.7519 
  973000    78.625341   -112.12351    15.600394   -96.523117    2640.7036 
  974000    79.401371   -113.24021    15.754369   -97.485843    2481.2935 
  975000    79.325499   -112.97978    15.739315   -97.240467    2518.9497 
  976000    77.776878   -112.75246    15.432047   -97.320415    2548.7152 
  977000     78.21638   -113.33703     15.51925   -97.817783     2463.124 
  978000    80.486106   -113.12476    15.969596   -97.155162     2502.438 
  979000    79.825892   -112.88556      15.8386   -97.046956    2537.4366 
  980000    77.197505   -112.41095    15.317091   -97.093855    2590.2294 
  981000    78.771517   -112.61497    15.629397    -96.98557    2570.4058 
  982000    81.046936   -113.10059    16.080873   -97.019718    2508.8759 
  983000    80.169266    -112.5327    15.906731   -96.625968    2580.1254 
  984000    78.195956   -113.01981    15.515198   -97.504617    2503.1963 
  985000    77.684403   -112.63581    15.413698   -97.222116     2562.088 
  986000    82.085796    -112.8696    16.286998   -96.582598    2539.4459 
  987000    77.604308   -112.81717    15.397806   -97.419362    2534.3842 
  988000    79.288498    -113.0258    15.731974   -97.293821    2516.7679 
  989000    78.791285   -112.55284    15.633319   -96.919524    2576.6259 
  990000     77.72903   -113.03203    15.422553   -97.609479    2505.2212 
  991000    79.266362   -112.71706    15.727581   -96.989483    2555.7794 
  992000    79.438043   -113.09814    15.761646   -97.336495    2495.5639 
  993000    79.691348   -112.76317    15.811905   -96.951265    2552.4185 
  994000    80.392884   -112.42549      15.9511   -96.474391    2596.7747 
  995000    78.710591   -112.44398    15.617309   -96.826675    2596.3225 
  996000    80.912316   -111.78634    16.054162   -95.732177    2696.7122 
  997000     79.56669   -112.96219    15.787171   -97.175023    2525.3279 
  998000    80.393443   -113.09927    15.951211   -97.148057     2502.636 
  999000    79.788015   -113.39825    15.831085   -97.567162    2458.2518 
 1000000    82.671814   -112.96111    16.403272   -96.557839    2532.9088 
Loop time of 114.608 on 40 procs for 1000000 steps with 1536 atoms

Performance: 753.877 ns/day, 0.032 hours/ns, 8725.423 timesteps/s
100.0% CPU use with 40 MPI tasks x no OpenMP threads

MPI task timing breakdown:
Section |  min time  |  avg time  |  max time  |%varavg| %total
---------------------------------------------------------------
Pair    | 20.34      | 23.357     | 25.34      |  34.6 | 20.38
Neigh   | 0.26647    | 0.28267    | 0.30349    |   2.4 |  0.25
Comm    | 74.197     | 76.856     | 79.193     |  16.7 | 67.06
Output  | 0.046383   | 0.047243   | 0.05859    |   0.8 |  0.04
Modify  | 6.3378     | 7.9685     | 9.5517     |  25.7 |  6.95
Other   |            | 6.097      |            |       |  5.32

Nlocal:        38.4000 ave          40 max          33 min
Histogram: 4 1 2 0 1 2 0 2 6 22
Nghost:        879.825 ave         897 max         829 min
Histogram: 6 2 0 0 0 0 0 6 5 21
Neighs:        2617.12 ave        2829 max        2228 min
Histogram: 4 2 1 1 2 5 9 2 2 12

Total # of neighbors = 104685
Ave neighs/atom = 68.154297
Neighbor list builds = 4459
Dangerous builds = 0

dump           final_dump all xyz 1 dump_final.xyz
dump_modify    final_dump sort id element Ar format line "%s %21.16f %21.16f %21.16f"

dump           final_forces all custom 1 dump_final_forces.custom id type x y z fx fy fz
dump_modify    final_forces sort id element Ar format line "%4d %1d %21.16f %21.16f %21.16f %21.16f %21.16f %21.16f"

run            0
Per MPI rank memory allocation (min/avg/max) = 7.674 | 7.675 | 7.676 Mbytes
Step Temp PotEng KinEng TotEng Press 
 1000000    82.671814   -112.96111    16.403272   -96.557839    2532.9088 
Loop time of 6.18815e-05 on 40 procs for 0 steps with 1536 atoms

100.5% CPU use with 40 MPI tasks x no OpenMP threads

MPI task timing breakdown:
Section |  min time  |  avg time  |  max time  |%varavg| %total
---------------------------------------------------------------
Pair    | 0          | 0          | 0          |   0.0 |  0.00
Neigh   | 0          | 0          | 0          |   0.0 |  0.00
Comm    | 0          | 0          | 0          |   0.0 |  0.00
Output  | 0          | 0          | 0          |   0.0 |  0.00
Modify  | 0          | 0          | 0          |   0.0 |  0.00
Other   |            | 6.188e-05  |            |       |100.00

Nlocal:        38.4000 ave          40 max          32 min
Histogram: 3 0 3 2 0 0 2 3 0 27
Nghost:        880.275 ave         896 max         830 min
Histogram: 6 2 0 0 0 0 0 5 3 24
Neighs:        2617.95 ave        2834 max        2171 min
Histogram: 3 2 1 1 1 2 7 10 0 13

Total # of neighbors = 104718
Ave neighs/atom = 68.175781
Neighbor list builds = 0
Dangerous builds = 0
Total wall time: 0:01:54
