ITEM: TIMESTEP
0
ITEM: NUMBER OF ATOMS
54
ITEM: BOX BOUNDS pp pp pp
0.0000000000000000e+00 8.4559071945852509e+00
0.0000000000000000e+00 8.4559071945852509e+00
0.0000000000000000e+00 1.2192276788903998e+01
ITEM: ATOMS id type x y z fx fy fz
   1 1    6.5955568800000002    2.0728810900000001    2.4270433900000001    1.4807460096404572    0.9457117494057911   -0.0054648289721643
   2 2    4.9695451145852507    5.6832575045852511    4.5489140900000002   -0.5926198868805943   -0.1871180188597514    1.7381941432850363
   3 1    7.7982743845852509    6.6852486845852503    6.1128418099999999    2.3166529002591929    0.8717474696915966   -0.5099225351967478
   4 2    2.9510947000000001    4.5100003800000001    3.3640198600000000    5.1325899617705266   -4.2913402914534364   -2.1262964432344225
   5 1    3.5108757599999998    6.0605431745852503    9.0967430599999997   -1.0567975348202205    0.6752087391505855   -0.3980080635314929
   6 2    5.2300800745852509    2.6867799500000000    8.5265468500000008    4.9942348677737876    7.0278395509342948    6.9900708770198907
   7 1    7.4697031899999997    1.2814927400000000   10.5892971989039975   -0.0414293608558039   -0.8252886838855821    1.2156804635012424
   8 2    0.6405687900000000    6.6821115445852506    1.0478530399999999    1.3819313141212146   -3.7150497682722410   -2.0532238067277877
   9 1    2.0044051500000002    2.2752901400000001    7.0997700400000001   -1.0910067672701869   -0.4620502347037167   -0.3368301880660133
  10 2    0.3883713600000000    1.9229578554147491    0.7558723899999999    0.3670751430319166    0.9654354015212799   -1.3514609636307893
  11 1    5.6113061899999996    5.0241026299999998   10.7624275300000001   -0.9836829833428653    0.1313768556714385   -2.0884792883938283
  12 2    1.9981900600000000    0.1310158254147495   11.7390898600000000   -3.6580917338550374   -1.7941255071619910    1.6323089834014670
  13 1    2.1593004599999999    4.1113889199999996    0.5269380100000000    0.6987176009412576   -0.3683838306913683    1.1989307435107390
  14 2    7.4837653645852509    8.3873044199999995    1.4041601300000000    2.7325693269782549    1.3342599194045508    0.1864034946268998
  15 1    5.6659144345852503    0.0289107454147484    5.4892190500000000    0.9055003012368937    1.0945153683166036   -1.5256716835671607
  16 2    2.0352861299999998    5.9098927300000001    4.5495115100000003   -0.5188298658923887    2.0784459466141483    4.0469113302007020
  17 1    1.0431291700000000    5.5455107799999999   10.7707060800000001    0.9859357280253858    1.5819068896986883   -0.1118107888098080
  18 2    3.4701267400000000    1.7280322854147485    0.8601529310960014   -1.9621321919657313    1.3687708161442078    3.1612856249342909
  19 1    7.5334691945852512    4.3132398800000002    0.2164129100000000    3.6136573255065372   -1.6339606394516477    4.4635086202021608
  20 2    7.8527896145852507    7.5665233345852512    9.5109390889039975    2.7906880456108429   -5.1983715268950634    2.7620085144248758
  21 1    1.5523861800000001    1.3609782600000000    3.0673329900000001   -4.0688393497357893   -0.3701384747169268   -3.1865591310410952
  22 2    8.0435464245852515    1.5961539499999999    5.2266705599999996    3.0607316066154704    5.9239731992372064   -0.1752434837412226
  23 1    7.1575533800000004    3.3449624000000000    6.7554113800000000   -0.1713890462785299    0.3129528349272011    0.6509022132664178
  24 2    1.0053397154147490    5.1062517645852505    7.6827193700000000   -2.7106729900530260   -1.1120605309488343   -0.1194746156145329
  25 1    5.5009988800000000    3.2374539954147483    4.4253819400000003    0.8674959735326006    1.9453311456697073    1.8530665113380160
  26 2    5.3370811199999997    7.8810746199999997    1.7630032200000001   -3.9635069029265115   -0.2067907294662434    2.2012748777699582
  27 1    3.7357606099999998    4.3748242499999996    6.8639104499999997    0.7525758825688234   -1.2013732617130393   -1.1154233223118992
  28 2    2.9661208499999998    6.6553570545852505    1.7276456200000001   -1.2226275681316106   -2.8098172924970855   -2.9642775912859305
  29 1    2.1256544100000001    8.3128501545852505    5.3692104699999996   -0.8285135210376648   -0.9400505194276929   -0.0137495193055381
  30 2    3.5526056600000002    6.3469870300000002   11.5764692700000005   -0.5701741854757093   -0.1169382792348682    2.1212918599777009
  31 1    6.7359925799999996    6.5634413399999998    0.0748118100000000   -0.6367369802792571   -0.5226208263391863   -1.6674647536213874
  32 2    1.6808398600000001    7.4766962299999999    7.8063490589039981   -0.0135841461519264    2.8939180276321421   -0.7946854724633864
  33 1    4.1735736599999997    7.1731799000000001    6.8454391499999998   -0.3409991867418505    0.5221654219074395   -0.2887519660991071
  34 2    8.3758551200000007    3.5676318000000000    3.5857364100000000   -2.3863823295448432   -3.7818833317316209   -5.8265473739960187
  35 1    5.3690698200000000    7.9149405300000000   10.4607662200000000    0.6191833926279300   -0.5283279564069331   -0.9949417676830483
  36 2    3.8295788945852509    0.8386906954147495    8.5976400200000000   -2.4615975563105348   -5.3924234831637579   -0.3522197227158959
  37 1    6.7242980599999997    5.7068241200000003    2.7959451099999999    0.7051279821768487    0.9080368782501457    0.3903819402815128
  38 2    1.2003244799999999    7.2430933345852511    3.0743923199999998    0.3596482110365283   -0.1648846063014531    2.1697735378884504
  39 1    7.4804337399999996    4.2769386699999998    9.9906564099999997    0.6108915647190231   -0.9348227432541505   -2.7950994500833244
  40 2    0.6848439200000001    4.0307026545852507    5.3472034099999997    4.7795037712310471    1.5411871012355949    5.6699586571487570
  41 1    4.3852757499999999    1.4167872500000001    3.4578150399999998   -0.3506713624416002   -3.3127634553657228   -3.4795061393217224
  42 2    6.6626714099999997    0.1362500300000000    8.0758593399999992  -16.0423619763412297   -0.6243640223571980   -0.5864907084095466
  43 1    4.9083919900000001    4.5345225100000004    1.7203424500000000   -2.1374925543618972    1.5554984220096821    0.5573721472768295
  44 2    3.5241938099999999    1.1377930500000000   10.7250338189039987    2.6343689663595464    2.7451658827346535    0.1288395418344164
  45 1    6.6177367199999999    5.3122122999999997    7.7242584599999997   -1.0440832631762598    1.2032807711837243    1.1924441120424589
  46 2    7.7348381645852511    0.0498560254147495    3.7676086000000000    0.1974052489438578   -3.8579460100307919   -2.6268909306185542
  47 1    5.4141059754147491    2.8264038899999999    0.2133648410960021    1.3912281115411960   -1.6842607700249015   -1.4798622553635716
  48 2    8.0499052645852505    0.9136523200000000    7.4597226299999999   10.4931153917268318    1.9454571784262606   -2.1831040056709257
  49 1    3.7182315154147485    3.8637661300000001   10.6390782599999998   -0.8973541306103838   -1.1607330263936801    0.0414197052161331
  50 2    3.6435996700000000    7.1346970599999997    3.3167016299999998   -1.0898878568131245    1.3818654506562311    5.0601850530363013
  51 1    2.7438826900000000    2.2018675000000001    4.5853567999999996   -0.7612553223262327    5.2029890010460127    3.4729370577411656
  52 2    0.7434687300000000    4.8983125500000000    2.9498482199999998   -0.6046024508875097    2.7224309846440811   -0.5492686734646912
  53 1    1.4540862554147491    2.0412390800000000    9.9372420399999992   -0.0854916756438233    0.2090580751371022    1.1997927144466520
  54 2    4.5675005500000001    1.8630393000000001    6.7952679299999996   -1.5787599478238341   -1.8906412605014722  -12.3982132514304588
