LAMMPS DATA file

54 atoms

2 atom types

0.0000000000000000e+00  8.45590719458525 xlo xhi
0.0000000000000000e+00  8.45590719458525 ylo yhi
0.0000000000000000e+00  12.192276788903998 zlo zhi

Masses

1 47.867 # Ti
2 26.981539  # Al

Atoms

1   1       6.59555688       2.07288109       2.42704339
2   2      -3.48636208      -2.77264969       4.54891409
3   1      -0.65763281      -1.77065851       6.11284181
4   2       2.95109470       4.51000038       3.36401986
5   1       3.51087576      -2.39536402       9.09674306
6   2      -3.22582712       2.68677995       8.52654685
7   1       7.46970319       1.28149274      -1.60297959
8   2       0.64056879      -1.77379565       1.04785304
9   1       2.00440515       2.27529014       7.09977004
10  2       0.38837136      10.37886505       0.75587239
11  1       5.61130619       5.02410263      10.76242753
12  2       1.99819006       8.58692302      11.73908986
13  1       2.15930046       4.11138892       0.52693801
14  2      -0.97214183       8.38730442       1.40416013
15  1      -2.78999276       8.48481794       5.48921905
16  2       2.03528613       5.90989273       4.54951151
17  1       1.04312917       5.54551078      10.77070608
18  2       3.47012674      10.18393948      13.05242972
19  1      -0.92243800       4.31323988       0.21641291
20  2      -0.60311758      -0.88938386      -2.68133770
21  1       1.55238618       1.36097826       3.06733299
22  2      -0.41236077       1.59615395       5.22667056
23  1       7.15755338       3.34496240       6.75541138
24  2       9.46124691      -3.34965543       7.68271937
25  1       5.50099888      11.69336119       4.42538194
26  2       5.33708112       7.88107462       1.76300322
27  1       3.73576061       4.37482425       6.86391045
28  2       2.96612085      -1.80055014       1.72764562
29  1       2.12565441      -0.14305704       5.36921047
30  2       3.55260566       6.34698703      11.57646927
31  1       6.73599258       6.56344134       0.07481181
32  2       1.68083986       7.47669623      -4.38592773
33  1       4.17357366       7.17317990       6.84543915
34  2       8.37585512       3.56763180       3.58573641
35  1       5.36906982       7.91494053      10.46076622
36  2      -4.62632830       9.29459789       8.59764002
37  1       6.72429806       5.70682412       2.79594511
38  2       1.20032448      -1.21281386       3.07439232
39  1       7.48043374       4.27693867       9.99065641
40  2       0.68484392      -4.42520454       5.34720341
41  1       4.38527575       1.41678725       3.45781504
42  2       6.66267141       0.13625003       8.07585934
43  1       4.90839199       4.53452251       1.72034245
44  2       3.52419381       1.13779305      -1.46724297
45  1       6.61773672       5.31221230       7.72425846
46  2      -0.72106903       8.50576322       3.76760860
47  1      13.87001317       2.82640389      12.40564163
48  2      -0.40600193       0.91365232       7.45972263
49  1      12.17413871       3.86376613      10.63907826
50  2       3.64359967       7.13469706       3.31670163
51  1       2.74388269       2.20186750       4.58535680
52  2       0.74346873       4.89831255       2.94984822
53  1       9.90999345       2.04123908       9.93724204
54  2       4.56750055       1.86303930       6.79526793
