ITEM: TIMESTEP
0
ITEM: NUMBER OF ATOMS
54
ITEM: BOX BOUNDS pp pp pp
0.0000000000000000e+00 8.4559071945852509e+00
0.0000000000000000e+00 8.4559071945852509e+00
0.0000000000000000e+00 1.2192276788903998e+01
ITEM: ATOMS id type x y z fx fy fz
   1 1    6.5955568800000002    2.0728810900000001    2.4270433900000001    0.4069986463135367    0.8618933354528036   -0.3148884435655347
   2 2    4.9695451145852507    5.6832575045852511    4.5489140900000002    0.3511878350242874    0.0593605957732360    2.1681207402825282
   3 1    7.7982743845852509    6.6852486845852503    6.1128418099999999    0.3042741795139701    0.7268144964008503   -1.3269286076885534
   4 2    2.9510947000000001    4.5100003800000001    3.3640198600000000    4.3712021825018939   -5.3789496779848207   -2.8848007619118365
   5 1    3.5108757599999998    6.0605431745852503    9.0967430599999997    0.2898809750049469   -0.1935713019968563   -0.3519647333563282
   6 2    5.2300800745852509    2.6867799500000000    8.5265468500000008    3.3510827275776798    4.6084043778881458    6.6356234712023241
   7 1    7.4697031899999997    1.2814927400000000   10.5892971989039975   -0.8663426689639842    1.2591585303466895    0.9036955650731224
   8 2    0.6405687900000000    6.6821115445852506    1.0478530399999999   -0.6301483973575048   -2.3934174648966349   -3.7044279559611115
   9 1    2.0044051500000002    2.2752901400000001    7.0997700400000001   -1.0727519821545042   -0.1943133167361017    0.3251604448779271
  10 2    0.3883713600000000    1.9229578554147491    0.7558723899999999    0.0081380394215459    0.8326703233073790   -0.5012966834585886
  11 1    5.6113061899999996    5.0241026299999998   10.7624275300000001   -0.4993578384483254    0.8196587745376017   -0.6985200895427628
  12 2    1.9981900600000000    0.1310158254147495   11.7390898600000000   -3.8350797388740570   -3.0633528510694119    1.6560898019781478
  13 1    2.1593004599999999    4.1113889199999996    0.5269380100000000   -0.0397424076800055    0.5484743730420569    0.8246605895137940
  14 2    7.4837653645852509    8.3873044199999995    1.4041601300000000    2.1644749536361867    1.8780101224287697   -0.7894641064731263
  15 1    5.6659144345852503    0.0289107454147484    5.4892190500000000    0.6317076291962161    0.2619188931349761   -1.1433842467973114
  16 2    2.0352861299999998    5.9098927300000001    4.5495115100000003   -0.6270878794574712    2.1325988041516473    8.6624347875485928
  17 1    1.0431291700000000    5.5455107799999999   10.7707060800000001    0.4579184013773312    0.4666980001406058   -0.1691868786602365
  18 2    3.4701267400000000    1.7280322854147485    0.8601529310960014   -1.5736961552309408   -0.3999072479545769    2.1430812542107560
  19 1    7.5334691945852512    4.3132398800000002    0.2164129100000000    1.5803619094703363   -0.9806201718424106    2.4816794999919050
  20 2    7.8527896145852507    7.5665233345852512    9.5109390889039975    2.6146113923700187   -4.1546312754081942    2.4670494782820516
  21 1    1.5523861800000001    1.3609782600000000    3.0673329900000001   -0.7121452542710393   -0.0472493168820151   -1.0989122376450171
  22 2    8.0435464245852515    1.5961539499999999    5.2266705599999996    1.0644523448376999    2.1912481797380714    0.4937197141513130
  23 1    7.1575533800000004    3.3449624000000000    6.7554113800000000   -0.6774987562494919   -0.1008808054371019    0.3852032620633820
  24 2    1.0053397154147490    5.1062517645852505    7.6827193700000000    0.3444429490641019   -1.0257603121334029    1.0362429366420849
  25 1    5.5009988800000000    3.2374539954147483    4.4253819400000003    0.9731509530461112    0.1865236266975654    1.1698268466931916
  26 2    5.3370811199999997    7.8810746199999997    1.7630032200000001   -2.1573543915532936    0.3443495373526445    0.0421971118118372
  27 1    3.7357606099999998    4.3748242499999996    6.8639104499999997    0.0577333594958496    0.5050683546584814   -0.7812579934117755
  28 2    2.9661208499999998    6.6553570545852505    1.7276456200000001   -3.3185242592017543   -4.7140870562890322  -12.9994320118946689
  29 1    2.1256544100000001    8.3128501545852505    5.3692104699999996   -0.0994242957074422    0.3091492387780359    0.1405964611890945
  30 2    3.5526056600000002    6.3469870300000002   11.5764692700000005   -0.0682246118990885    0.2966553849506554    0.9031749813487580
  31 1    6.7359925799999996    6.5634413399999998    0.0748118100000000   -0.4011922467118744   -0.6441686507657542   -1.6312820452484840
  32 2    1.6808398600000001    7.4766962299999999    7.8063490589039981   -0.2601883906919574    1.1460590003881366    0.4365367626910478
  33 1    4.1735736599999997    7.1731799000000001    6.8454391499999998    0.2308867586785530   -0.4196511834636429    0.1333906188349127
  34 2    8.3758551200000007    3.5676318000000000    3.5857364100000000  -12.5219193892353431  -16.7695391263045543    0.5168962756018346
  35 1    5.3690698200000000    7.9149405300000000   10.4607662200000000   -0.1501440568420691   -0.0659085914615291   -0.4259766884639853
  36 2    3.8295788945852509    0.8386906954147495    8.5976400200000000   -1.9828486837328749   -3.6773556757413193   -0.5985155191462221
  37 1    6.7242980599999997    5.7068241200000003    2.7959451099999999    1.6357894478647543    0.5574441121166573   -0.4835454448625844
  38 2    1.2003244799999999    7.2430933345852511    3.0743923199999998   -1.9273164330076893    4.1978526501937177    1.6896673225292660
  39 1    7.4804337399999996    4.2769386699999998    9.9906564099999997    1.4228794970232337   -1.2605382276347574   -1.9633485726682531
  40 2    0.6848439200000001    4.0307026545852507    5.3472034099999997    3.3071861282062169    1.2394842781246727    6.7393625517347679
  41 1    4.3852757499999999    1.4167872500000001    3.4578150399999998    0.1162018013787979   -1.6420494193920785   -0.8770532406050014
  42 2    6.6626714099999997    0.1362500300000000    8.0758593399999992  -17.5120421030792208   -6.8891123541879757    3.4681733326879405
  43 1    4.9083919900000001    4.5345225100000004    1.7203424500000000   -0.6991333512802491    0.9528680634058316   -0.5163768293655230
  44 2    3.5241938099999999    1.1377930500000000   10.7250338189039987    3.7524134269381881    2.5243612488908536    0.8005706463131181
  45 1    6.6177367199999999    5.3122122999999997    7.7242584599999997   -1.8308335733369372    1.3689226556871694    1.1391448713383681
  46 2    7.7348381645852511    0.0498560254147495    3.7676086000000000   -1.4481185842585584   -2.9967921871814562   -1.1537026885685386
  47 1    5.4141059754147491    2.8264038899999999    0.2133648410960021    2.0658745182900047   -0.7164904918579074   -2.2801881865870941
  48 2    8.0499052645852505    0.9136523200000000    7.4597226299999999   15.2375762726951987    7.6983167130989543   -4.8620658214372403
  49 1    3.7182315154147485    3.8637661300000001   10.6390782599999998   -1.7866175319537889   -1.7017026686084014   -0.4744371152227655
  50 2    3.6435996700000000    7.1346970599999997    3.3167016299999998    5.6781114811410562    6.2322327937087589   12.3851143585182761
  51 1    2.7438826900000000    2.2018675000000001    4.5853567999999996   -0.3515606883542090    1.8804158545642116    1.7829929186540792
  52 2    0.7434687300000000    4.8983125500000000    2.9498482199999998    6.4485698401204399   13.3757533557903230  -10.3462705585537549
  53 1    1.4540862554147491    2.0412390800000000    9.9372420399999992   -0.8136455325770601    1.2141033335743270   -0.5875402548398624
  54 2    4.5675005500000001    1.8630393000000001    6.7952679299999996   -1.0041684480774380   -1.2464196330938939   -8.5656388898282536
