ITEM: TIMESTEP
0
ITEM: NUMBER OF ATOMS
108
ITEM: BOX BOUNDS pp pp pp
0.0000000000000000e+00 1.0956000000000000e+01
0.0000000000000000e+00 1.0956000000000000e+01
0.0000000000000000e+00 1.0629000000000000e+01
ITEM: ATOMS id type x y z fx fy fz
   1 1    1.9498426099999999    1.6123894800000000    2.2463115000000000    0.2934028330646974    2.2391463791157822    3.5805991258122507
   2 1    3.2310994800000001    7.2917578000000001   10.6101818899999998    2.5019366319970411    0.3079131021154432   -1.4811393670133808
   3 1    5.0867491899999999    5.3743590899999996    2.2430686899999999    0.9859633865470442    1.2623129738991656   -0.0724878733294310
   4 1    8.9265713699999996    5.1206595400000001    7.8247845199999997    2.2869528861405093    1.8107239315344070    2.9778492209877720
   5 1    0.2592721000000000    7.0133755899999999    5.3305418199999997   -0.5435944436927587    4.8617220212411301   -1.7159494443594268
   6 1   10.7365987599999997   10.8800927800000000   10.6153213300000004    0.2323767752271890    1.5272686719527648    0.6949390035189855
   7 1    7.1881782400000001    3.5480399000000000    5.1419050200000003   -0.8002883589438211   -2.2978909082359262    0.3721054619802748
   8 1    7.2680072800000000    7.1069656900000000    5.4505338700000001   -1.7465470603409305   -0.1412051582697286   -0.5735341457877198
   9 1    1.6494264599999999    5.2833683000000002    2.6433772400000000   -0.7644597248208747    0.1151103598885561   -0.6694519998325394
  10 1   10.7283949100000005    3.2646578100000001    5.3122076399999996    3.6158548108901378    2.5689349857519734   -2.8970957738860750
  11 1   10.8235741700000005    3.6351975099999998    0.1936622900000000    0.2493087632623083    0.5913220087412303   -2.1509310940534103
  12 1    1.9354248400000000    5.1519876800000004    7.7933675300000003    0.2084039970504575    2.4132132851444488   -0.6796567959327640
  13 1    8.9461627799999999    9.0473408899999992    8.0078490599999999    0.6308095163122955   -0.4422140828971952    0.1254871061453231
  14 1    1.7098071600000000    1.6894044600000000    7.9303547200000004    0.2057390464344397    0.5501147798540689    2.2154334083826734
  15 1    7.3893707199999996    7.2870110099999996   10.4758578999999994   -2.1964358991480206   -0.2635663953285380    1.0763947706860688
  16 1    8.7307771299999999    9.0393448700000008    2.9513383800000002    1.1622089915314959   -0.9353078635182375   -2.6980559547617471
  17 1    5.0789946400000003    8.9861253300000001    2.4193840299999998    1.6845572644885642   -0.6251057238057547    0.4314129966980753
  18 1    5.4426058800000003    9.3071524599999993    7.9839223300000004   -4.8551985873045549   -4.7797821799608000    0.7632089562341133
  19 1   10.9507573300000001   10.7516530699999997    5.3004673799999997   -1.3048269320164243    0.4280376260972640   -2.4263199501949790
  20 1    3.5276752199999999    3.4735595899999998    5.1816768299999998   -0.4953319868505410   -0.1227878092130312   -1.1914731182305585
  21 1   10.9538038699999998    7.2940740100000001   10.3258917399999994   -3.6315649365649638   -2.5260967870896538   -1.0213597147516618
  22 1    1.6456279000000000    9.0987234299999997    7.9318484199999997    1.6968017017144834   -0.8878953569838856   -0.7728381879476538
  23 1    7.2406413799999996    3.7825271200000001    0.0748470800000000    0.6082368209799822   -3.2263734923815068   -1.6310825397151940
  24 1    8.9499556299999998    5.4080370699999998    2.6872656600000000    0.9740246877561889    0.8743991031881730   -0.6672580195035180
  25 1    3.8236803699999999    6.9904107199999999    4.8131646100000003   -1.8839160394448684    0.4671371266448774    2.6896005702237709
  26 1    3.7737331799999998    0.0466739800000000    0.0220746300000000   -2.8426280532342227   -2.3860813311001512   -0.3619598311148755
  27 1    7.1999626299999999    0.0728454600000000    5.2426781499999997    2.0653976799059635   -1.9521394327366004   -1.4975960030878852
  28 1    5.6696258100000003    1.6242438699999999    2.6256736900000002   -1.4488936961064720   -1.4187129702323686    0.9229359280259899
  29 1    5.3494679300000003    1.7250430200000000    7.5813982700000002    1.9247026684962756    0.6653214912230387    1.7686794395301160
  30 1    1.4256022800000001    8.9866387299999992    2.5796010100000002   -1.9242853201340326    3.2112945016965293   -0.7286992158008549
  31 1    3.3299887699999999   10.9341262399999994    5.2506655200000001    3.4446211020266131   -1.7841769061148627   -1.2630096999906653
  32 1    3.7357748000000002    3.6106027200000002   10.2165931000000008   -2.3518327897609725   -0.7578038151707301   -2.0273826266226105
  33 1    7.1817182600000002   10.9535638199999994   10.5472857399999995    3.8867704643005050    1.7517538872739349   -2.1699459480642149
  34 1    9.0363334999999996    1.7914524800000000    2.5222215200000000    0.8913402091999501    0.0736805180993967    1.9464139846904118
  35 1    5.4428051599999998    5.4758693899999997    7.8838400899999996   -1.8376593620427091    0.1736556028681931   -1.1545576107195346
  36 1    9.0497654500000007    1.7001676400000001    7.7713846300000000   -1.1695218212403418   -0.4312894529306305    3.3400069291588190
  37 2   10.5057749000000005    9.5845480799999994    1.6476423200000001    0.9790245808545510   -0.3578097610570014   -1.0102325589805476
  38 2    5.0698647899999996    7.1086391100000004    3.3652439699999999    2.9789706311198643   -0.1687817119218488   -2.1796435604285018
  39 2   10.8249983400000005    5.5721666000000001    4.0577155600000001    0.5392535949175096   -2.9863297132360578   -0.9225416720449889
  40 2   10.5201266100000002    1.7316611000000000    4.2294791399999996    1.2355015225317061   -1.9299164544694800   -0.0124905560074637
  41 2    1.7629813400000001   10.8695582599999998    3.8848047999999999    0.1421885260260327    1.4194413203596725   -1.6749977028709631
  42 2    1.7024185500000000    0.0846790300000000    1.1687234900000001   -0.6300993152733836   -0.7736261920859322   -2.7253003829439884
  43 2    2.1226030599999999    3.9810609000000001    0.6740873500000000   -2.1014663002412455   -1.4049449688806874    1.2625977437311593
  44 2    0.4495063800000000    1.9355864400000000    9.7257516200000005   -0.4822776999501154   -0.8804194544441538   -0.3936539296438193
  45 2    1.7441040500000000   10.8285213500000008    8.9739178099999997   -0.2786953574436608    0.2930170765922116   -0.1637826348692332
  46 2    1.7574875700000001   10.4756398799999992    6.2722654799999997   -4.0303484638216860    1.4584355543662051    1.1461698836440311
  47 2   10.9542293999999991    1.8100072300000001    6.7498245399999997    0.8311030697950085   -1.0133038150825584    1.5376911654524192
  48 2    1.8843236500000000    3.3871044800000001    3.3237903400000000   -1.1804504935182094   -0.4205567085054681    1.0207183562288524
  49 2    1.4719650000000000    7.5332583900000003    0.9597057000000000   -0.3053181673752552    0.9487737968653789    0.0444591131135121
  50 2    1.8063053099999999    7.1928590899999998    8.9430213199999997   -0.1159273741169461    1.5818003581197280   -0.0158864607094734
  51 2   10.7286291499999997    2.2867134199999999    1.6239633499999999    4.1573340611569334   -0.4352743205026752    0.4088047531535561
  52 2    3.7478391100000001    5.1082562500000002    6.4553532999999996   -2.0486312002856413    2.7811546535869560    2.4197563629261829
  53 2    3.5104206200000001    1.6528777100000001    6.7340960599999997   -1.5715826650230380    0.1577397714427146    0.3350493935223977
  54 2    5.3909712299999999    3.5057395499999999    8.6978579099999997   -0.3997202592490636    0.8446119391163939   -0.3088323323914831
  55 2   10.8328709900000000    5.2844045199999998    1.4801322500000000   -0.0146755573372951   -0.0252878397180254   -0.0815697871457609
  56 2    2.3622152700000001    7.5195828899999997    5.9504287099999997   -3.9014984568307032    0.0527277516196665    1.4969963792486256
  57 2   10.8529835800000001    8.6150234799999996    6.8946615600000003    0.0801041089045206    1.5769862250766518    0.5204074745444122
  58 2    3.8762220599999999    1.6630748900000001    4.1044106700000000   -1.1558762787732726   -0.3493690776089808    0.7445185154940427
  59 2    5.8673867599999996   10.6716270499999997    3.3763120500000001    0.8538331998873177    0.6699437878500734    0.1931232779935134
  60 2    5.5116577099999997   10.6540145099999997    0.7522161400000000   -1.9640356870811684   -1.0471752256158018    2.2385672347712249
  61 2    3.9002888900000001    1.6740566400000001    1.6405635100000000   -1.9935701484959927   -0.5875440942203954   -2.1719134253339965
  62 2    3.6148129999999998    1.6211643600000001    9.5406527899999993    0.6932994603142417    0.8855198773787383   -0.9540174447704096
  63 2    5.7888704700000000    0.0107577000000000    8.8401978700000008   -1.1165292155833397    1.8009810067464684    0.1271137293119700
  64 2   10.8968633500000003    9.1563911000000004    9.6441568300000000    0.3439833358080071   -1.3179779333937351   -1.4418952392397115
  65 2    3.4844188500000000    5.0834485799999998    3.7930377300000000    0.7761822958245889    0.5931833798035600    0.9606722439097367
  66 2    5.5925345699999998    3.3697822799999999    3.3712241600000001    0.0001652139792958    3.7908467979161276    0.0443057564391199
  67 2    5.3253816100000000    4.1550901700000002    0.5425526300000000    0.5237954831975066    1.4668304145562210    2.0660333469498280
  68 2    8.9840330700000006    7.0992439000000003    6.2406166699999996    1.2488344277346706   -0.5906703218607829    1.7911315704566557
  69 2    3.5141731500000000    5.4887050000000004    9.1911944400000003    2.2000678814732106    0.4880736695507486    0.8871769640554001
  70 2    5.3005107200000001    3.7454195800000001    6.0235617599999998    3.2156557210558208   -3.8395021380344043    0.0267555804096695
  71 2   10.9428808499999999    5.4587485600000001    9.1918897899999994   -0.0987191117572881   -0.8908043400559085    0.5372527360097679
  72 2    9.1598810299999993    0.0837115100000000    6.4382472000000002   -0.3941062391921221   -2.0805632026322378   -1.1523374636240304
  73 2    1.7347139899999999    3.5966836700000000    6.2946254899999996   -0.1977312908729356   -1.4750509419383886   -1.1777613647436238
  74 2    6.6201868800000003    1.9379128400000001    0.9569061200000000    1.0248278223549656   -0.2003542334228652    0.9504448631187690
  75 2    9.0192770899999992    0.7570895100000000    0.8552598300000001   -1.2517986686182734   -2.1270072137275826   -1.4502021796635147
  76 2    7.3258765400000003    8.7171040400000006    4.3839670799999997   -0.5571846266305290    2.9801574493899277   -0.3305963533192354
  77 2    7.5008020100000001    1.9078092600000001    3.9086825300000001   -2.2752876682416558   -2.8267442914214120    1.5518381140979431
  78 2    3.5114363499999999    9.5687969699999993    7.2567654399999997    2.8979145015335872    0.2632598273407936   -0.3674260113136965
  79 2    8.9451281999999992    7.2605082200000002    9.0573037999999997    1.4697087599266720   -0.4180664653523306   -4.3135393181722472
  80 2    7.3484578400000000    1.7218183400000000    9.3133880799999993    0.6239276133344480    0.5494304841157709   -0.1371087834128647
  81 2    7.7142563300000004    9.0940986899999992    9.6450297799999998   -1.8659224585091345    2.7450211119622159   -1.0560238168816678
  82 2    5.8448564000000003    7.2782907999999997    8.6964975100000004    0.5651126208471984   -0.7162480625082515   -0.0140027069747565
  83 2    9.0571913199999994    7.2096918800000003    3.6427283600000000   -0.1615049425817969   -1.0731808242620002   -0.3934100188490610
  84 2    5.1491348400000003    7.4112087700000000    6.1715991800000003    2.8388125153703871   -1.5437159691888764    0.4399041699385709
  85 2    7.3006592200000000    8.9426611299999994    1.4384127900000001   -0.5349093574743662    0.8035788253546925    1.4816966218385408
  86 2    9.0891076799999997    7.3007725099999998    0.6677890300000000    3.9385907098278201   -0.7730228239568345    2.7623202010622276
  87 2    7.6362253999999998    5.2474180500000003    9.4663071900000002   -1.3286126749914109    1.0415190950321687   -0.6414935630372648
  88 2    4.0345408599999999    8.9785132099999991    9.6397276099999996   -1.2470911227498034    0.9498583191871821    1.6442619956910238
  89 2    9.3238728500000008   10.8999822999999996    9.0311523099999995    0.1851653819753106    0.4969129513739401   -1.4796586043000572
  90 2    7.2296911899999996    5.1815925399999996    6.8325191099999998   -0.8507008327717727    0.2933856797260673    1.6306536533513816
  91 2    5.4810941900000003    0.4163562700000000    5.9070828000000004   -2.3199859628359722   -0.6258015481878095    0.9777561259185503
  92 2    0.4158410100000000    5.6138053200000000    6.4924396900000003   -1.1373439247065038   -2.5306593263879305    3.0651799333272667
  93 2   10.8613636099999997    9.2070802399999998    4.0367162700000003   -0.1165651093866458   -1.2527156796333847    2.1691349732737466
  94 2    1.5810151100000001    7.3236430500000003    3.4513526899999998    1.1426408213412425   -2.9470434593910757    1.5271245557943711
  95 2    3.9574907100000001    9.0638144399999998    4.2112619899999997   -0.8455454186547591    1.4176695920633646    0.1614891547148071
  96 2    3.2360449099999999    5.9970761100000001    1.5488692500000001    0.8734092688877020   -0.7776304639782338    0.1806044541579863
  97 2    5.2545450400000000    7.1741711099999996    0.8439352700000000   -0.9352414784058927    0.8692970525213009   -0.4097538337497667
  98 2    9.1459865199999992   10.8676504900000008    3.5999253800000002   -2.1725002166653220    0.5480884054894362    0.8750676859160140
  99 2    9.1962395000000008    3.3834953600000000    9.0509243799999997    0.8795441733813552    0.9326884862754674   -1.0100778666881591
 100 2    7.1961840099999996    5.9043847300000003    1.6130177100000000   -0.3245114910887065   -2.5452536091588844    0.7071490394955315
 101 2    8.7533348699999998    3.6848508700000000    1.3186781700000001    0.1469309276438357    0.1484794756760361   -2.1376010682605973
 102 2    9.0494758799999993    3.5659999700000000    3.5588294199999999    0.5138537348522318    2.5757809526861108    2.7672776651218403
 103 2    7.1367621699999999    5.2613336000000004    4.5414043599999996    0.6266532751830797    4.5390509892022406   -3.7780555727041514
 104 2    3.2418811700000001    9.3051311900000009    1.6329740900000000    2.0188685772225621   -0.6950478556437546   -0.7356089824570657
 105 2    9.1155543699999999    3.4867889600000002    6.2457008399999996   -2.4630114841601247    1.2662416037311357    2.4546481125319191
 106 2    7.2934387799999998    1.7093592799999999    6.7606757899999996   -0.5539128837046130    0.8534391001532919   -1.4364064951521258
 107 2    2.1277929200000001    3.5278868900000000    8.7864617900000006   -0.2013605044087798   -1.7620995199178273   -0.7861252918412989
 108 2    6.9259656700000001    9.2839186199999997    6.8249149100000004    4.8265670648656229    0.3909400888141255   -1.3451879055649751
