ITEM: TIMESTEP
0
ITEM: NUMBER OF ATOMS
108
ITEM: BOX BOUNDS pp pp pp
0.0000000000000000e+00 1.0956000000000000e+01
0.0000000000000000e+00 1.0956000000000000e+01
0.0000000000000000e+00 1.0629000000000000e+01
ITEM: ATOMS id type x y z fx fy fz
   1 1    1.9498426099999999    1.6123894800000000    2.2463115000000000    0.2934028330634868    2.2391463791156099    3.5805991258125935
   2 1    3.2310994800000001    7.2917578000000001   10.6101818899999998    2.5019366319967573    0.3079131021151275   -1.4811393670115502
   3 1    5.0867491899999999    5.3743590899999996    2.2430686899999999    0.9859633865454459    1.2623129739003773   -0.0724878733305623
   4 1    8.9265713699999996    5.1206595400000001    7.8247845199999997    2.2869528861424504    1.8107239315350534    2.9778492209883822
   5 1    0.2592721000000000    7.0133755899999999    5.3305418199999997   -0.5435944436922033    4.8617220212396486   -1.7159494443602910
   6 1   10.7365987599999997   10.8800927800000000   10.6153213300000004    0.2323767752277698    1.5272686719534261    0.6949390035198624
   7 1    7.1881782400000001    3.5480399000000000    5.1419050200000003   -0.8002883589431903   -2.2978909082366985    0.3721054619785160
   8 1    7.2680072800000000    7.1069656900000000    5.4505338700000001   -1.7465470603408810   -0.1412051582686101   -0.5735341457886880
   9 1    1.6494264599999999    5.2833683000000002    2.6433772400000000   -0.7644597248200520    0.1151103598900958   -0.6694519998323458
  10 1   10.7283949100000005    3.2646578100000001    5.3122076399999996    3.6158548108900259    2.5689349857529087   -2.8970957738873926
  11 1   10.8235741700000005    3.6351975099999998    0.1936622900000000    0.2493087632621707    0.5913220087418749   -2.1509310940531683
  12 1    1.9354248400000000    5.1519876800000004    7.7933675300000003    0.2084039970496627    2.4132132851437462   -0.6796567959325568
  13 1    8.9461627799999999    9.0473408899999992    8.0078490599999999    0.6308095163135119   -0.4422140828977066    0.1254871061463397
  14 1    1.7098071600000000    1.6894044600000000    7.9303547200000004    0.2057390464348821    0.5501147798542650    2.2154334083840972
  15 1    7.3893707199999996    7.2870110099999996   10.4758578999999994   -2.1964358991471284   -0.2635663953284553    1.0763947706868597
  16 1    8.7307771299999999    9.0393448700000008    2.9513383800000002    1.1622089915319753   -0.9353078635179946   -2.6980559547623963
  17 1    5.0789946400000003    8.9861253300000001    2.4193840299999998    1.6845572644872022   -0.6251057238061610    0.4314129966994438
  18 1    5.4426058800000003    9.3071524599999993    7.9839223300000004   -4.8551985873041268   -4.7797821799603568    0.7632089562334319
  19 1   10.9507573300000001   10.7516530699999997    5.3004673799999997   -1.3048269320165409    0.4280376260964956   -2.4263199501966310
  20 1    3.5276752199999999    3.4735595899999998    5.1816768299999998   -0.4953319868518810   -0.1227878092127736   -1.1914731182312446
  21 1   10.9538038699999998    7.2940740100000001   10.3258917399999994   -3.6315649365653582   -2.5260967870890587   -1.0213597147501012
  22 1    1.6456279000000000    9.0987234299999997    7.9318484199999997    1.6968017017138246   -0.8878953569841368   -0.7728381879483535
  23 1    7.2406413799999996    3.7825271200000001    0.0748470800000000    0.6082368209803559   -3.2263734923813701   -1.6310825397136863
  24 1    8.9499556299999998    5.4080370699999998    2.6872656600000000    0.9740246877572094    0.8743991031877281   -0.6672580195043860
  25 1    3.8236803699999999    6.9904107199999999    4.8131646100000003   -1.8839160394465857    0.4671371266448079    2.6896005702213377
  26 1    3.7737331799999998    0.0466739800000000    0.0220746300000000   -2.8426280532355688   -2.3860813311001414   -0.3619598311149292
  27 1    7.1999626299999999    0.0728454600000000    5.2426781499999997    2.0653976799054741   -1.9521394327359678   -1.4975960030880593
  28 1    5.6696258100000003    1.6242438699999999    2.6256736900000002   -1.4488936961060535   -1.4187129702326440    0.9229359280262404
  29 1    5.3494679300000003    1.7250430200000000    7.5813982700000002    1.9247026684960349    0.6653214912234051    1.7686794395313752
  30 1    1.4256022800000001    8.9866387299999992    2.5796010100000002   -1.9242853201342414    3.2112945016969996   -0.7286992158014673
  31 1    3.3299887699999999   10.9341262399999994    5.2506655200000001    3.4446211020268640   -1.7841769061158705   -1.2630096999913005
  32 1    3.7357748000000002    3.6106027200000002   10.2165931000000008   -2.3518327897612252   -0.7578038151714184   -2.0273826266224995
  33 1    7.1817182600000002   10.9535638199999994   10.5472857399999995    3.8867704643021805    1.7517538872733731   -2.1699459480627112
  34 1    9.0363334999999996    1.7914524800000000    2.5222215200000000    0.8913402091993508    0.0736805180991194    1.9464139846892672
  35 1    5.4428051599999998    5.4758693899999997    7.8838400899999996   -1.8376593620436557    0.1736556028679499   -1.1545576107188529
  36 1    9.0497654500000007    1.7001676400000001    7.7713846300000000   -1.1695218212397327   -0.4312894529309659    3.3400069291595580
  37 2   10.5057749000000005    9.5845480799999994    1.6476423200000001    0.9790245808548013   -0.3578097610566784   -1.0102325589811447
  38 2    5.0698647899999996    7.1086391100000004    3.3652439699999999    2.9789706311202471   -0.1687817119211782   -2.1796435604287021
  39 2   10.8249983400000005    5.5721666000000001    4.0577155600000001    0.5392535949178390   -2.9863297132349995   -0.9225416720446172
  40 2   10.5201266100000002    1.7316611000000000    4.2294791399999996    1.2355015225317296   -1.9299164544693723   -0.0124905560077886
  41 2    1.7629813400000001   10.8695582599999998    3.8848047999999999    0.1421885260265550    1.4194413203592799   -1.6749977028721967
  42 2    1.7024185500000000    0.0846790300000000    1.1687234900000001   -0.6300993152741989   -0.7736261920866251   -2.7253003829439040
  43 2    2.1226030599999999    3.9810609000000001    0.6740873500000000   -2.1014663002403333   -1.4049449688806932    1.2625977437310829
  44 2    0.4495063800000000    1.9355864400000000    9.7257516200000005   -0.4822776999503079   -0.8804194544455562   -0.3936539296438120
  45 2    1.7441040500000000   10.8285213500000008    8.9739178099999997   -0.2786953574439921    0.2930170765926097   -0.1637826348680103
  46 2    1.7574875700000001   10.4756398799999992    6.2722654799999997   -4.0303484638211824    1.4584355543664596    1.1461698836436693
  47 2   10.9542293999999991    1.8100072300000001    6.7498245399999997    0.8311030697950729   -1.0133038150823837    1.5376911654526071
  48 2    1.8843236500000000    3.3871044800000001    3.3237903400000000   -1.1804504935176459   -0.4205567085053339    1.0207183562287103
  49 2    1.4719650000000000    7.5332583900000003    0.9597057000000000   -0.3053181673754164    0.9487737968656469    0.0444591131140770
  50 2    1.8063053099999999    7.1928590899999998    8.9430213199999997   -0.1159273741168297    1.5818003581190752   -0.0158864607095192
  51 2   10.7286291499999997    2.2867134199999999    1.6239633499999999    4.1573340611580640   -0.4352743205038239    0.4088047531538392
  52 2    3.7478391100000001    5.1082562500000002    6.4553532999999996   -2.0486312002855516    2.7811546535869249    2.4197563629263841
  53 2    3.5104206200000001    1.6528777100000001    6.7340960599999997   -1.5715826650225817    0.1577397714433502    0.3350493935220607
  54 2    5.3909712299999999    3.5057395499999999    8.6978579099999997   -0.3997202592493987    0.8446119391161855   -0.3088323323919994
  55 2   10.8328709900000000    5.2844045199999998    1.4801322500000000   -0.0146755573371993   -0.0252878397169710   -0.0815697871452707
  56 2    2.3622152700000001    7.5195828899999997    5.9504287099999997   -3.9014984568308133    0.0527277516190761    1.4969963792481484
  57 2   10.8529835800000001    8.6150234799999996    6.8946615600000003    0.0801041089039087    1.5769862250756914    0.5204074745440136
  58 2    3.8762220599999999    1.6630748900000001    4.1044106700000000   -1.1558762787731756   -0.3493690776088775    0.7445185154939844
  59 2    5.8673867599999996   10.6716270499999997    3.3763120500000001    0.8538331998870401    0.6699437878493710    0.1931232779929203
  60 2    5.5116577099999997   10.6540145099999997    0.7522161400000000   -1.9640356870811706   -1.0471752256161739    2.2385672347721757
  61 2    3.9002888900000001    1.6740566400000001    1.6405635100000000   -1.9935701484961361   -0.5875440942205894   -2.1719134253338184
  62 2    3.6148129999999998    1.6211643600000001    9.5406527899999993    0.6932994603149611    0.8855198773798847   -0.9540174447711305
  63 2    5.7888704700000000    0.0107577000000000    8.8401978700000008   -1.1165292155837401    1.8009810067476613    0.1271137293116893
  64 2   10.8968633500000003    9.1563911000000004    9.6441568300000000    0.3439833358071727   -1.3179779333932562   -1.4418952392387832
  65 2    3.4844188500000000    5.0834485799999998    3.7930377300000000    0.7761822958244826    0.5931833798033980    0.9606722439100074
  66 2    5.5925345699999998    3.3697822799999999    3.3712241600000001    0.0001652139789172    3.7908467979160436    0.0443057564395682
  67 2    5.3253816100000000    4.1550901700000002    0.5425526300000000    0.5237954831970909    1.4668304145559969    2.0660333469495233
  68 2    8.9840330700000006    7.0992439000000003    6.2406166699999996    1.2488344277350500   -0.5906703218608387    1.7911315704567410
  69 2    3.5141731500000000    5.4887050000000004    9.1911944400000003    2.2000678814733154    0.4880736695502260    0.8871769640549010
  70 2    5.3005107200000001    3.7454195800000001    6.0235617599999998    3.2156557210557994   -3.8395021380348884    0.0267555804105834
  71 2   10.9428808499999999    5.4587485600000001    9.1918897899999994   -0.0987191117575823   -0.8908043400557286    0.5372527360093136
  72 2    9.1598810299999993    0.0837115100000000    6.4382472000000002   -0.3941062391927215   -2.0805632026325265   -1.1523374636236117
  73 2    1.7347139899999999    3.5966836700000000    6.2946254899999996   -0.1977312908722239   -1.4750509419378575   -1.1777613647431662
  74 2    6.6201868800000003    1.9379128400000001    0.9569061200000000    1.0248278223549412   -0.2003542334229520    0.9504448631189051
  75 2    9.0192770899999992    0.7570895100000000    0.8552598300000001   -1.2517986686171252   -2.1270072137285956   -1.4502021796645965
  76 2    7.3258765400000003    8.7171040400000006    4.3839670799999997   -0.5571846266306532    2.9801574493899605   -0.3305963533194075
  77 2    7.5008020100000001    1.9078092600000001    3.9086825300000001   -2.2752876682425187   -2.8267442914212713    1.5518381140984172
  78 2    3.5114363499999999    9.5687969699999993    7.2567654399999997    2.8979145015336898    0.2632598273409230   -0.3674260113141832
  79 2    8.9451281999999992    7.2605082200000002    9.0573037999999997    1.4697087599264820   -0.4180664653526591   -4.3135393181717641
  80 2    7.3484578400000000    1.7218183400000000    9.3133880799999993    0.6239276133337960    0.5494304841163475   -0.1371087834136339
  81 2    7.7142563300000004    9.0940986899999992    9.6450297799999998   -1.8659224585085323    2.7450211119613876   -1.0560238168814375
  82 2    5.8448564000000003    7.2782907999999997    8.6964975100000004    0.5651126208474592   -0.7162480625093615   -0.0140027069745972
  83 2    9.0571913199999994    7.2096918800000003    3.6427283600000000   -0.1615049425819928   -1.0731808242618703   -0.3934100188488242
  84 2    5.1491348400000003    7.4112087700000000    6.1715991800000003    2.8388125153706674   -1.5437159691897397    0.4399041699383294
  85 2    7.3006592200000000    8.9426611299999994    1.4384127900000001   -0.5349093574745920    0.8035788253543752    1.4816966218388115
  86 2    9.0891076799999997    7.3007725099999998    0.6677890300000000    3.9385907098274502   -0.7730228239566579    2.7623202010620025
  87 2    7.6362253999999998    5.2474180500000003    9.4663071900000002   -1.3286126749910683    1.0415190950324482   -0.6414935630375364
  88 2    4.0345408599999999    8.9785132099999991    9.6397276099999996   -1.2470911227501174    0.9498583191871250    1.6442619956920523
  89 2    9.3238728500000008   10.8999822999999996    9.0311523099999995    0.1851653819759210    0.4969129513734898   -1.4796586042993147
  90 2    7.2296911899999996    5.1815925399999996    6.8325191099999998   -0.8507008327721838    0.2933856797267700    1.6306536533516998
  91 2    5.4810941900000003    0.4163562700000000    5.9070828000000004   -2.3199859628359940   -0.6258015481870792    0.9777561259186153
  92 2    0.4158410100000000    5.6138053200000000    6.4924396900000003   -1.1373439247059480   -2.5306593263865320    3.0651799333269905
  93 2   10.8613636099999997    9.2070802399999998    4.0367162700000003   -0.1165651093864111   -1.2527156796342247    2.1691349732728784
  94 2    1.5810151100000001    7.3236430500000003    3.4513526899999998    1.1426408213410475   -2.9470434593914852    1.5271245557949509
  95 2    3.9574907100000001    9.0638144399999998    4.2112619899999997   -0.8455454186548076    1.4176695920633651    0.1614891547139160
  96 2    3.2360449099999999    5.9970761100000001    1.5488692500000001    0.8734092688874066   -0.7776304639782192    0.1806044541582874
  97 2    5.2545450400000000    7.1741711099999996    0.8439352700000000   -0.9352414784058818    0.8692970525218509   -0.4097538337495982
  98 2    9.1459865199999992   10.8676504900000008    3.5999253800000002   -2.1725002166655933    0.5480884054888278    0.8750676859154711
  99 2    9.1962395000000008    3.3834953600000000    9.0509243799999997    0.8795441733808413    0.9326884862760056   -1.0100778666879964
 100 2    7.1961840099999996    5.9043847300000003    1.6130177100000000   -0.3245114910882589   -2.5452536091585887    0.7071490394951874
 101 2    8.7533348699999998    3.6848508700000000    1.3186781700000001    0.1469309276433668    0.1484794756760984   -2.1376010682607016
 102 2    9.0494758799999993    3.5659999700000000    3.5588294199999999    0.5138537348520672    2.5757809526868876    2.7672776651217021
 103 2    7.1367621699999999    5.2613336000000004    4.5414043599999996    0.6266532751830788    4.5390509892016242   -3.7780555727038654
 104 2    3.2418811700000001    9.3051311900000009    1.6329740900000000    2.0188685772231909   -0.6950478556436437   -0.7356089824567784
 105 2    9.1155543699999999    3.4867889600000002    6.2457008399999996   -2.4630114841603170    1.2662416037313977    2.4546481125322055
 106 2    7.2934387799999998    1.7093592799999999    6.7606757899999996   -0.5539128837056498    0.8534391001531847   -1.4364064951519611
 107 2    2.1277929200000001    3.5278868900000000    8.7864617900000006   -0.2013605044082187   -1.7620995199171328   -0.7861252918413548
 108 2    6.9259656700000001    9.2839186199999997    6.8249149100000004    4.8265670648663974    0.3909400888137224   -1.3451879055655318
