LAMMPS (15 Jun 2023)
Reading data file ...
  orthogonal box = (0 0 0) to (8.4559072 8.4559072 12.192277)
  1 by 1 by 1 MPI processor grid
  reading atoms ...
  54 atoms
  read_data CPU = 0.002 seconds
ACE version: 2022.6.27
Recursive evaluator is used
Loading test_PL_example_TiAl.yace
