ITEM: TIMESTEP
0
ITEM: NUMBER OF ATOMS
54
ITEM: BOX BOUNDS pp pp pp
0.0000000000000000e+00 8.4559071945852509e+00
0.0000000000000000e+00 8.4559071945852509e+00
0.0000000000000000e+00 1.2192276788903998e+01
ITEM: ATOMS id type x y z fx fy fz
   1 1    6.5955568800000002    2.0728810900000001    2.4270433900000001    0.3447861935432266    0.8020099424491429   -0.6981898002023814
   2 2    4.9695451145852507    5.6832575045852511    4.5489140900000002    1.0695657561901306   -0.1768886916989975    2.6357270164963600
   3 1    7.7982743845852509    6.6852486845852503    6.1128418099999999    0.7871207146013672    0.7114734781826422   -1.2931427828856736
   4 2    2.9510947000000001    4.5100003800000001    3.3640198600000000    4.2664514079776072   -5.5970495076361777   -3.3388186678284018
   5 1    3.5108757599999998    6.0605431745852503    9.0967430599999997   -0.1330422437412889    0.0663116954586067   -0.9157372192514839
   6 2    5.2300800745852509    2.6867799500000000    8.5265468500000008    4.0590697954221620    5.2224744222443249    7.1961662177019532
   7 1    7.4697031899999997    1.2814927400000000   10.5892971989039975   -0.6716111986696380    1.1486271786394187    0.9038120285865160
   8 2    0.6405687900000000    6.6821115445852506    1.0478530399999999   -0.1018160998473888   -2.2712165816523058   -3.8049679662345097
   9 1    2.0044051500000002    2.2752901400000001    7.0997700400000001   -1.6697795769102524    0.2585213147781242    0.6436981268969639
  10 2    0.3883713600000000    1.9229578554147491    0.7558723899999999   -0.1247408019682559    1.2984108464376916   -0.9070050191078277
  11 1    5.6113061899999996    5.0241026299999998   10.7624275300000001   -0.1061087103072360    0.4283777235710384   -1.7954897122978013
  12 2    1.9981900600000000    0.1310158254147495   11.7390898600000000   -5.0581787159582241   -3.6528075508317839    1.9993815907947465
  13 1    2.1593004599999999    4.1113889199999996    0.5269380100000000    0.3752921094125202    0.4265505406709126    0.8477992545604855
  14 2    7.4837653645852509    8.3873044199999995    1.4041601300000000    2.2076911495456488    2.1403846844295220   -0.9794468340939751
  15 1    5.6659144345852503    0.0289107454147484    5.4892190500000000    1.1045620802875407    0.0072219912917382   -1.2344609078786677
  16 2    2.0352861299999998    5.9098927300000001    4.5495115100000003   -0.3689136177380280    1.8297488412546032    8.7716057484931049
  17 1    1.0431291700000000    5.5455107799999999   10.7707060800000001    0.8502499596702010    1.0711072968874706   -0.8288241704558494
  18 2    3.4701267400000000    1.7280322854147485    0.8601529310960014   -1.4177266553077543    0.1487780916996941    2.8805620737444126
  19 1    7.5334691945852512    4.3132398800000002    0.2164129100000000    2.0268827254289969   -1.2162282514068781    3.2602685833870289
  20 2    7.8527896145852507    7.5665233345852512    9.5109390889039975    2.9480474929877309   -5.1337911864767261    3.1625106155455773
  21 1    1.5523861800000001    1.3609782600000000    3.0673329900000001   -1.0807632148573807    0.1099665739029299   -2.0322321356093154
  22 2    8.0435464245852515    1.5961539499999999    5.2266705599999996    1.0014837589907533    2.1461291435127952    0.9725855831541517
  23 1    7.1575533800000004    3.3449624000000000    6.7554113800000000   -0.7238740083721756   -0.3103709310130969    0.9242646301718673
  24 2    1.0053397154147490    5.1062517645852505    7.6827193700000000   -0.4239331844692992   -1.5065751065679232    0.9822025225414884
  25 1    5.5009988800000000    3.2374539954147483    4.4253819400000003    0.9591829730436413    0.0865973992956389    1.1077466848977919
  26 2    5.3370811199999997    7.8810746199999997    1.7630032200000001   -2.2987882528360748    0.5151720489508007    0.0856869248929832
  27 1    3.7357606099999998    4.3748242499999996    6.8639104499999997   -0.2236161550158412    0.0850416770875090   -0.5669430199819695
  28 2    2.9661208499999998    6.6553570545852505    1.7276456200000001   -3.5257853561368897   -4.3611664490317281  -12.7120087646698519
  29 1    2.1256544100000001    8.3128501545852505    5.3692104699999996   -0.3181960777055324    1.1364778270370799    0.5750202296236656
  30 2    3.5526056600000002    6.3469870300000002   11.5764692700000005   -0.2155816230457501    0.7831097917466556    1.2304676946578048
  31 1    6.7359925799999996    6.5634413399999998    0.0748118100000000   -0.9159031029546385   -0.6685959199963809   -1.4685011323398363
  32 2    1.6808398600000001    7.4766962299999999    7.8063490589039981   -0.2387052874757708    1.5504807492610455    0.3394610242477538
  33 1    4.1735736599999997    7.1731799000000001    6.8454391499999998    0.4906945125691317   -0.2909873387172112   -0.0988923730487178
  34 2    8.3758551200000007    3.5676318000000000    3.5857364100000000  -12.6792194799100102  -16.5967585118733645   -0.0932085661696984
  35 1    5.3690698200000000    7.9149405300000000   10.4607662200000000    0.4997979649883618    0.0464004133087474   -0.1898305801934149
  36 2    3.8295788945852509    0.8386906954147495    8.5976400200000000   -1.9986357121768883   -4.6916692018198454   -0.8282798116990542
  37 1    6.7242980599999997    5.7068241200000003    2.7959451099999999    1.4059599753433429    0.9005852484056974   -0.6611718626635046
  38 2    1.2003244799999999    7.2430933345852511    3.0743923199999998   -2.2289440560045146    3.4448787825255942    1.7622854853833185
  39 1    7.4804337399999996    4.2769386699999998    9.9906564099999997    1.1173226649996273   -1.6413748397596386   -2.2484056684608604
  40 2    0.6848439200000001    4.0307026545852507    5.3472034099999997    3.5580445627856747    1.3147750079466809    7.5272230317181039
  41 1    4.3852757499999999    1.4167872500000001    3.4578150399999998    0.2655511454444773   -1.4115566716893087   -1.3985509451271869
  42 2    6.6626714099999997    0.1362500300000000    8.0758593399999992  -19.3820097276215435   -6.4287492140392963    2.6942337559282166
  43 1    4.9083919900000001    4.5345225100000004    1.7203424500000000   -0.7911367576014855    0.7947483818554183   -0.1186174889989378
  44 2    3.5241938099999999    1.1377930500000000   10.7250338189039987    4.6052709265207028    2.5791883326572926    0.5503933278248673
  45 1    6.6177367199999999    5.3122122999999997    7.7242584599999997   -1.6883019406276816    1.3753847960358410    0.7566179309453167
  46 2    7.7348381645852511    0.0498560254147495    3.7676086000000000   -1.7009922493876861   -2.9385442155927572   -0.6703589386968496
  47 1    5.4141059754147491    2.8264038899999999    0.2133648410960021    2.1887382872320860   -0.9993388781374469   -1.7162426616638446
  48 2    8.0499052645852505    0.9136523200000000    7.4597226299999999   15.9226612169442703    8.1491292709821277   -5.3094921260062762
  49 1    3.7182315154147485    3.8637661300000001   10.6390782599999998   -1.6684776947950326   -1.5809761883955822   -0.4962261191630479
  50 2    3.6435996700000000    7.1346970599999997    3.3167016299999998    5.9037638008537909    6.2073563765723367   12.4155889123039174
  51 1    2.7438826900000000    2.2018675000000001    4.5853567999999996   -0.2793016699491625    1.8584963746208321    2.3688430465407793
  52 2    0.7434687300000000    4.8983125500000000    2.9498482199999998    6.5724218281192623   12.7538595027805233   -9.9047601799920688
  53 1    1.4540862554147491    2.0412390800000000    9.9372420399999992   -1.9040530630780435    1.4800705715417009   -0.5701226896792186
  54 2    4.5675005500000001    1.8630393000000001    6.7952679299999996   -0.5924767684327883   -1.4032010816857308   -9.7142238966389449
