LAMMPS (15 Jun 2023)
Reading data file ...
  orthogonal box = (0 0 0) to (8.4559072 8.4559072 12.192277)
  1 by 1 by 1 MPI processor grid
  reading atoms ...
  54 atoms
  read_data CPU = 0.002 seconds
ACE version: 2022.6.27
Recursive evaluator is used
Loading TiAl_tutorial_pot.yace
Total number of basis functions
	Al: 24 (r=1) 106 (r>1)
	Ti: 24 (r=1) 106 (r>1)
Mapping LAMMPS atom type #1(Ti) -> ACE species type #1
Mapping LAMMPS atom type #2(Al) -> ACE species type #0
Reading pair table potential file TiAl_tutorial_pot_pairpot.table with DATE: none
WARNING: 1 of 5500 force values in table Ti_Ti are inconsistent with -dE/dr.
WARNING:  Should only be flagged at inflection points (src/pair_table.cpp:466)
Reading pair table potential file TiAl_tutorial_pot_pairpot.table with DATE: none
WARNING: 1 of 5500 force values in table Al_Ti are inconsistent with -dE/dr.
WARNING:  Should only be flagged at inflection points (src/pair_table.cpp:466)
Reading pair table potential file TiAl_tutorial_pot_pairpot.table with DATE: none
WARNING: 1 of 5500 force values in table Al_Al are inconsistent with -dE/dr.
WARNING:  Should only be flagged at inflection points (src/pair_table.cpp:466)
WARNING: No fixes with time integration, atoms won't move (src/verlet.cpp:60)
Neighbor list info ...
  update: every = 1 steps, delay = 0 steps, check = yes
  max neighbors/atom: 2000, page size: 100000
  master list distance cutoff = 7.5
  ghost atom cutoff = 7.5
  binsize = 3.75, bins = 3 3 4
  2 neighbor lists, perpetual/occasional/extra = 2 0 0
  (1) pair pace, perpetual
      attributes: full, newton on
      pair build: full/bin/atomonly
      stencil: full/bin/3d
      bin: standard
  (2) pair table, perpetual, half/full from (1)
      attributes: half, newton on
      pair build: halffull/newton
      stencil: none
      bin: none
Setting up Verlet run ...
  Unit style    : metal
  Current step  : 0
  Time step     : 0.001
Per MPI rank memory allocation (min/avg/max) = 3.719 | 3.719 | 3.719 Mbytes
   Step          Temp          E_pair         E_mol          TotEng         Press     
         0   0             -45948.458      0             -45948.458      144539.89    
Loop time of 3.33e-07 on 1 procs for 0 steps with 54 atoms

300.3% CPU use with 1 MPI tasks x no OpenMP threads

MPI task timing breakdown:
Section |  min time  |  avg time  |  max time  |%varavg| %total
---------------------------------------------------------------
Pair    | 0          | 0          | 0          |   0.0 |  0.00
Neigh   | 0          | 0          | 0          |   0.0 |  0.00
Comm    | 0          | 0          | 0          |   0.0 |  0.00
Output  | 0          | 0          | 0          |   0.0 |  0.00
Modify  | 0          | 0          | 0          |   0.0 |  0.00
Other   |            | 3.33e-07   |            |       |100.00

Nlocal:             54 ave          54 max          54 min
Histogram: 1 0 0 0 0 0 0 0 0 0
Nghost:            871 ave         871 max         871 min
Histogram: 1 0 0 0 0 0 0 0 0 0
Neighs:           2930 ave        2930 max        2930 min
Histogram: 1 0 0 0 0 0 0 0 0 0
FullNghs:         5860 ave        5860 max        5860 min
Histogram: 1 0 0 0 0 0 0 0 0 0

Total # of neighbors = 5860
Ave neighs/atom = 108.51852
Neighbor list builds = 0
Dangerous builds = 0
Total wall time: 0:00:03
