54
Lattice="8.45590719458525 0.0 0.0 0.0 8.45590719458525 0.0 0.0 0.0 12.192276788903998" Properties=species:S:1:pos:R:3:force:R:3 virial="81.03300641463284 29.83125868776016 -14.10771968956356 29.83125868776016 71.53880017637695 2.983971431547304 -14.10771968956356 2.983971431547304 100.25662028336903" config_type=TiAl_T5000 energy=-45948.1350907 pbc="T T T"
Ti       6.59555688       2.07288109       2.42704339       0.00591000       0.40370000       0.15645000
Al      -3.48636208      -2.77264969       4.54891409       0.92462000      -0.21738000       3.12006000
Ti      -0.65763281      -1.77065851       6.11284181       0.24854000       0.86835000      -0.92252000
Al       2.95109470       4.51000038       3.36401986       4.24454000      -5.07345000      -3.09559000
Ti       3.51087576      -2.39536402       9.09674306       0.33567000       0.02648000      -1.13167000
Al      -3.22582712       2.68677995       8.52654685       3.58348000       4.89768000       6.47099000
Ti       7.46970319       1.28149274      -1.60297959      -0.87081000       1.15968000       0.43827000
Al       0.64056879      -1.77379565       1.04785304      -0.68595000      -2.38312000      -4.19705000
Ti       2.00440515       2.27529014       7.09977004      -1.03429000       0.11232000       0.14662000
Al       0.38837136      10.37886505       0.75587239       0.31682000       1.15158000      -0.81120000
Ti       5.61130619       5.02410263      10.76242753      -1.23680000      -0.18189000      -1.20025000
Al       1.99819006       8.58692302      11.73908986      -4.64105000      -3.43441000       1.77136000
Ti       2.15930046       4.11138892       0.52693801       0.10024000       0.13861000       0.68663000
Al      -0.97214183       8.38730442       1.40416013       2.13983000       1.60705000      -1.25664000
Ti      -2.78999276       8.48481794       5.48921905       0.84168000      -0.65474000      -1.81258000
Al       2.03528613       5.90989273       4.54951151      -0.25234000       2.28407000       8.97178000
Ti       1.04312917       5.54551078      10.77070608       0.85883000       0.64075000      -0.53049000
Al       3.47012674      10.18393948      13.05242972      -1.79750000      -0.36060000       2.44199000
Ti      -0.92243800       4.31323988       0.21641291       1.64887000      -0.62587000       2.09826000
Al      -0.60311758      -0.88938386      -2.68133770       2.92443000      -4.19419000       2.45241000
Ti       1.55238618       1.36097826       3.06733299      -0.77125000       0.16801000      -1.64980000
Al      -0.41236077       1.59615395       5.22667056       1.13425000       2.52809000       0.33970000
Ti       7.15755338       3.34496240       6.75541138      -0.46455000      -0.75897000       0.88888000
Al       9.46124691      -3.34965543       7.68271937      -0.20421000      -1.38541000       1.05024000
Ti       5.50099888      11.69336119       4.42538194       1.05685000       0.24765000       1.13004000
Al       5.33708112       7.88107462       1.76300322      -2.34455000       0.52241000      -0.21421000
Ti       3.73576061       4.37482425       6.86391045      -0.26610000       0.75255000      -0.90902000
Al       2.96612085      -1.80055014       1.72764562      -3.54701000      -4.53076000     -13.30313000
Ti       2.12565441      -0.14305704       5.36921047      -0.39942000       1.15099000      -0.04579000
Al       3.55260566       6.34698703      11.57646927       0.04390000      -0.05368000       0.70382000
Ti       6.73599258       6.56344134       0.07481181      -0.23482000      -0.46779000      -1.81753000
Al       1.68083986       7.47669623      -4.38592773      -0.33596000       1.17674000       0.50564000
Ti       4.17357366       7.17317990       6.84543915       0.56599000      -0.78310000       0.44726000
Al       8.37585512       3.56763180       3.58573641     -13.15801000     -17.21815000       0.34025000
Ti       5.36906982       7.91494053      10.46076622       0.65640000       0.10038000      -0.08363000
Al      -4.62632830       9.29459789       8.59764002      -2.20042000      -4.01595000      -0.48994000
Ti       6.72429806       5.70682412       2.79594511       1.81195000       0.78234000      -0.23257000
Al       1.20032448      -1.21281386       3.07439232      -1.98997000       3.88497000       1.86536000
Ti       7.48043374       4.27693867       9.99065641       1.40763000      -1.40914000      -1.51834000
Al       0.68484392      -4.42520454       5.34720341       3.46774000       1.41199000       7.23699000
Ti       4.38527575       1.41678725       3.45781504       0.02898000      -1.21508000      -2.10461000
Al       6.66267141       0.13625003       8.07585934     -19.02117000      -7.02070000       3.67402000
Ti       4.90839199       4.53452251       1.72034245      -0.05969000       0.71148000      -0.54354000
Al       3.52419381       1.13779305      -1.46724297       4.24974000       2.71171000       0.69169000
Ti       6.61773672       5.31221230       7.72425846      -1.68573000       1.73177000       1.34867000
Al      -0.72106903       8.50576322       3.76760860      -1.39770000      -2.94391000      -0.47704000
Ti      13.87001317       2.82640389      12.40564163       2.07364000      -1.35430000      -2.43953000
Al      -0.40600193       0.91365232       7.45972263      16.31194000       7.73078000      -4.81530000
Ti      12.17413871       3.86376613      10.63907826      -1.59809000      -0.73229000      -0.30642000
Al       3.64359967       7.13469706       3.31670163       5.82694000       6.54511000      12.48123000
Ti       2.74388269       2.20186750       4.58535680      -0.56266000       1.48230000       2.80251000
Al       0.74346873       4.89831255       2.94984822       6.88188000      13.49189000      -9.66727000
Ti       9.90999345       2.04123908       9.93724204      -2.06366000       1.50232000      -0.14690000
Al       4.56750055       1.86303930       6.79526793      -0.86754000      -0.90885000      -8.53855000

