ITEM: TIMESTEP
0
ITEM: NUMBER OF ATOMS
108
ITEM: BOX BOUNDS pp pp pp
0.0000000000000000e+00 1.0956000000000000e+01
0.0000000000000000e+00 1.0956000000000000e+01
0.0000000000000000e+00 1.0629000000000000e+01
ITEM: ATOMS id type x y z fx fy fz
   1 1    1.9498426099999999    1.6123894800000000    2.2463115000000000    0.2969561999695003    2.2553968411994276    3.5778835771141075
   2 1    3.2310994800000001    7.2917578000000001   10.6101818899999998    2.4944332760797181    0.3117375992525605   -1.4848314125202258
   3 1    5.0867491899999999    5.3743590899999996    2.2430686899999999    0.9848078439840133    1.2632055635620114   -0.0902651176850968
   4 1    8.9265713699999996    5.1206595400000001    7.8247845199999997    2.2786672817799900    1.8202139097424519    2.9836238362761902
   5 1    0.2592721000000000    7.0133755899999999    5.3305418199999997   -0.5284911056809065    4.8629993587464284   -1.7131561501087589
   6 1   10.7365987599999997   10.8800927800000000   10.6153213300000004    0.2470081681914209    1.5310497968123187    0.6889830465481737
   7 1    7.1881782400000001    3.5480399000000000    5.1419050200000003   -0.7892082032764804   -2.2895580476895261    0.3722116320561630
   8 1    7.2680072800000000    7.1069656900000000    5.4505338700000001   -1.7610981934160979   -0.1308606978784297   -0.5548597290216399
   9 1    1.6494264599999999    5.2833683000000002    2.6433772400000000   -0.7742118280866208    0.1334081499974751   -0.6673607598808928
  10 1   10.7283949100000005    3.2646578100000001    5.3122076399999996    3.6107118966291551    2.5731173558085452   -2.9026503855395873
  11 1   10.8235741700000005    3.6351975099999998    0.1936622900000000    0.2519224579254562    0.6025583832024139   -2.1565727115172137
  12 1    1.9354248400000000    5.1519876800000004    7.7933675300000003    0.2121800920534227    2.4128560041694112   -0.6757546057181187
  13 1    8.9461627799999999    9.0473408899999992    8.0078490599999999    0.6273563216539557   -0.4236132814894855    0.1109806379698925
  14 1    1.7098071600000000    1.6894044600000000    7.9303547200000004    0.2074641670530113    0.5483489672713628    2.2303200616542753
  15 1    7.3893707199999996    7.2870110099999996   10.4758578999999994   -2.2051649010643950   -0.2570493680245000    1.0778141263967158
  16 1    8.7307771299999999    9.0393448700000008    2.9513383800000002    1.1553216830632038   -0.9161472737711485   -2.7142594127715158
  17 1    5.0789946400000003    8.9861253300000001    2.4193840299999998    1.6876291601940983   -0.6265229508790000    0.4276792824584117
  18 1    5.4426058800000003    9.3071524599999993    7.9839223300000004   -4.8613094281874218   -4.7884697638327332    0.7575073853020449
  19 1   10.9507573300000001   10.7516530699999997    5.3004673799999997   -1.3115709247075880    0.4143924748783192   -2.4172045578150190
  20 1    3.5276752199999999    3.4735595899999998    5.1816768299999998   -0.4896917771500959   -0.1309208550523506   -1.1949615103773759
  21 1   10.9538038699999998    7.2940740100000001   10.3258917399999994   -3.6152555287046653   -2.5368829693989134   -1.0074265846694246
  22 1    1.6456279000000000    9.0987234299999997    7.9318484199999997    1.7002754810373713   -0.8864598686169529   -0.7839250978194912
  23 1    7.2406413799999996    3.7825271200000001    0.0748470800000000    0.6129407136984041   -3.2206585030345369   -1.6271343201917652
  24 1    8.9499556299999998    5.4080370699999998    2.6872656600000000    0.9775357571745864    0.8748659112093575   -0.6690020969751060
  25 1    3.8236803699999999    6.9904107199999999    4.8131646100000003   -1.8890136185866044    0.4736742643718156    2.6872864187266554
  26 1    3.7737331799999998    0.0466739800000000    0.0220746300000000   -2.8495161473330128   -2.3838608235765637   -0.3612592149581654
  27 1    7.1999626299999999    0.0728454600000000    5.2426781499999997    2.0699213930994809   -1.9543627091861513   -1.5052112283911043
  28 1    5.6696258100000003    1.6242438699999999    2.6256736900000002   -1.4441679486611589   -1.4209043786155107    0.9144310696682254
  29 1    5.3494679300000003    1.7250430200000000    7.5813982700000002    1.9286706345900395    0.6607324305177911    1.7806221637859090
  30 1    1.4256022800000001    8.9866387299999992    2.5796010100000002   -1.9231550351309323    3.2008473402216318   -0.7345161078483784
  31 1    3.3299887699999999   10.9341262399999994    5.2506655200000001    3.4405021254989805   -1.7896499449882772   -1.2604868753194838
  32 1    3.7357748000000002    3.6106027200000002   10.2165931000000008   -2.3666742883264460   -0.7571690476835156   -2.0247294356464929
  33 1    7.1817182600000002   10.9535638199999994   10.5472857399999995    3.8889474198483835    1.7518960693804055   -2.1729899999842255
  34 1    9.0363334999999996    1.7914524800000000    2.5222215200000000    0.8893503370988398    0.0704561658421808    1.9434196398209553
  35 1    5.4428051599999998    5.4758693899999997    7.8838400899999996   -1.8369767111435258    0.1918379298324074   -1.1482684108452492
  36 1    9.0497654500000007    1.7001676400000001    7.7713846300000000   -1.1767544013975524   -0.4397703891622524    3.3466752060454574
  37 2   10.5057749000000005    9.5845480799999994    1.6476423200000001    0.9866916927545901   -0.3525009534338963   -1.0188566862363189
  38 2    5.0698647899999996    7.1086391100000004    3.3652439699999999    2.9867230032680014   -0.1709862239093418   -2.1795238087458757
  39 2   10.8249983400000005    5.5721666000000001    4.0577155600000001    0.5445514542894472   -2.9819592300584610   -0.9236737613875050
  40 2   10.5201266100000002    1.7316611000000000    4.2294791399999996    1.2271640398284376   -1.9257701262922566   -0.0032833387082301
  41 2    1.7629813400000001   10.8695582599999998    3.8848047999999999    0.1461127810591165    1.4165247798070695   -1.6708384893788626
  42 2    1.7024185500000000    0.0846790300000000    1.1687234900000001   -0.6355476739793318   -0.7657107176116753   -2.7280522574152499
  43 2    2.1226030599999999    3.9810609000000001    0.6740873500000000   -2.1050876633317301   -1.4160408506809787    1.2498939996397382
  44 2    0.4495063800000000    1.9355864400000000    9.7257516200000005   -0.4763631674255606   -0.8865835357388647   -0.3959067998801515
  45 2    1.7441040500000000   10.8285213500000008    8.9739178099999997   -0.2732654314781655    0.2918654723266769   -0.1591732659599252
  46 2    1.7574875700000001   10.4756398799999992    6.2722654799999997   -4.0268282077400954    1.4456694992083641    1.1576187307407650
  47 2   10.9542293999999991    1.8100072300000001    6.7498245399999997    0.8379234341414588   -1.0093712765138498    1.5294139611241633
  48 2    1.8843236500000000    3.3871044800000001    3.3237903400000000   -1.1859285068163019   -0.4244177934477342    1.0261230598722619
  49 2    1.4719650000000000    7.5332583900000003    0.9597057000000000   -0.3004440295920574    0.9491831877709274    0.0463142358188975
  50 2    1.8063053099999999    7.1928590899999998    8.9430213199999997   -0.1212402664083072    1.5779420905845569   -0.0189177684101054
  51 2   10.7286291499999997    2.2867134199999999    1.6239633499999999    4.1655278766149166   -0.4398879161712728    0.4016819361932562
  52 2    3.7478391100000001    5.1082562500000002    6.4553532999999996   -2.0333796193790725    2.7700431574679500    2.4240516043997591
  53 2    3.5104206200000001    1.6528777100000001    6.7340960599999997   -1.5770038083441982    0.1576526110322005    0.3406947976456655
  54 2    5.3909712299999999    3.5057395499999999    8.6978579099999997   -0.3981026710216645    0.8493443140112498   -0.3112242562382714
  55 2   10.8328709900000000    5.2844045199999998    1.4801322500000000   -0.0210134736911556   -0.0220714314706854   -0.0852577620228203
  56 2    2.3622152700000001    7.5195828899999997    5.9504287099999997   -3.8954307939230688    0.0584492382822575    1.4965549971384320
  57 2   10.8529835800000001    8.6150234799999996    6.8946615600000003    0.0796422085974768    1.5672709398339570    0.5193887122607919
  58 2    3.8762220599999999    1.6630748900000001    4.1044106700000000   -1.1526839516432021   -0.3413399585189359    0.7412869991761202
  59 2    5.8673867599999996   10.6716270499999997    3.3763120500000001    0.8510936563371772    0.6745556655934308    0.1882973250740463
  60 2    5.5116577099999997   10.6540145099999997    0.7522161400000000   -1.9651277615018472   -1.0447796671662957    2.2405765886742302
  61 2    3.9002888900000001    1.6740566400000001    1.6405635100000000   -1.9939254637151063   -0.5823453400273333   -2.1847180248027587
  62 2    3.6148129999999998    1.6211643600000001    9.5406527899999993    0.6888601381550692    0.8832465707144261   -0.9566884391358386
  63 2    5.7888704700000000    0.0107577000000000    8.8401978700000008   -1.1347410478089976    1.7958276169199792    0.1366045897273693
  64 2   10.8968633500000003    9.1563911000000004    9.6441568300000000    0.3450760116826928   -1.3307319773450104   -1.4534426428032248
  65 2    3.4844188500000000    5.0834485799999998    3.7930377300000000    0.7843577674418061    0.5938532337488502    0.9709551792321935
  66 2    5.5925345699999998    3.3697822799999999    3.3712241600000001    0.0023304935202118    3.7900043261963834    0.0477828270947721
  67 2    5.3253816100000000    4.1550901700000002    0.5425526300000000    0.5176110654058470    1.4706689457497535    2.0557969291314131
  68 2    8.9840330700000006    7.0992439000000003    6.2406166699999996    1.2393111315235430   -0.5932201547686233    1.7835916743407658
  69 2    3.5141731500000000    5.4887050000000004    9.1911944400000003    2.1976564475174598    0.4852678184267333    0.8851627229023260
  70 2    5.3005107200000001    3.7454195800000001    6.0235617599999998    3.1934700851421960   -3.8231391211852390    0.0252230241254351
  71 2   10.9428808499999999    5.4587485600000001    9.1918897899999994   -0.0999039693434725   -0.8792614208949097    0.5313952493601732
  72 2    9.1598810299999993    0.0837115100000000    6.4382472000000002   -0.3913958631154983   -2.0835696874809644   -1.1477748973499473
  73 2    1.7347139899999999    3.5966836700000000    6.2946254899999996   -0.2034010244948448   -1.4720559349658373   -1.1699511031625711
  74 2    6.6201868800000003    1.9379128400000001    0.9569061200000000    1.0319228402953371   -0.2022876219263878    0.9677271812690975
  75 2    9.0192770899999992    0.7570895100000000    0.8552598300000001   -1.2651791570778030   -2.1323833649675965   -1.4531685589421564
  76 2    7.3258765400000003    8.7171040400000006    4.3839670799999997   -0.5636221374959807    2.9765836346301415   -0.3277492163618356
  77 2    7.5008020100000001    1.9078092600000001    3.9086825300000001   -2.2782705815942066   -2.8359030951924353    1.5493621791199388
  78 2    3.5114363499999999    9.5687969699999993    7.2567654399999997    2.8929859110259279    0.2643414841459579   -0.3660198670373482
  79 2    8.9451281999999992    7.2605082200000002    9.0573037999999997    1.4704707252282816   -0.4239890878567394   -4.3062926701398236
  80 2    7.3484578400000000    1.7218183400000000    9.3133880799999993    0.6351033380452193    0.5487763344904807   -0.1471840043547745
  81 2    7.7142563300000004    9.0940986899999992    9.6450297799999998   -1.8713113751134927    2.7541010091581200   -1.0624593519368979
  82 2    5.8448564000000003    7.2782907999999997    8.6964975100000004    0.5783257891181228   -0.7206028896688181   -0.0167549063462000
  83 2    9.0571913199999994    7.2096918800000003    3.6427283600000000   -0.1610479495159272   -1.0737214669763215   -0.3865338930609550
  84 2    5.1491348400000003    7.4112087700000000    6.1715991800000003    2.8518740040657353   -1.5469066594774361    0.4601416662266695
  85 2    7.3006592200000000    8.9426611299999994    1.4384127900000001   -0.5337210141580790    0.8045358448881537    1.4740937969727703
  86 2    9.0891076799999997    7.3007725099999998    0.6677890300000000    3.9301299048338469   -0.7755751677593902    2.7626010571450257
  87 2    7.6362253999999998    5.2474180500000003    9.4663071900000002   -1.3203595891266564    1.0439686385132165   -0.6382661048751248
  88 2    4.0345408599999999    8.9785132099999991    9.6397276099999996   -1.2451024251925755    0.9467753799491117    1.6339826900463046
  89 2    9.3238728500000008   10.8999822999999996    9.0311523099999995    0.1815933742666047    0.4939538651444266   -1.4765220246354005
  90 2    7.2296911899999996    5.1815925399999996    6.8325191099999998   -0.8511402490454678    0.2942845290933144    1.6423237045749133
  91 2    5.4810941900000003    0.4163562700000000    5.9070828000000004   -2.3206087783554636   -0.6328595286343699    0.9742758854648628
  92 2    0.4158410100000000    5.6138053200000000    6.4924396900000003   -1.1439383850839420   -2.5338737385390218    3.0656993653726943
  93 2   10.8613636099999997    9.2070802399999998    4.0367162700000003   -0.1017222479358111   -1.2485327247562736    2.1655438814290022
  94 2    1.5810151100000001    7.3236430500000003    3.4513526899999998    1.1399243223279427   -2.9610973074002089    1.5413134494022316
  95 2    3.9574907100000001    9.0638144399999998    4.2112619899999997   -0.8381603259294472    1.4103427626598166    0.1603449002239254
  96 2    3.2360449099999999    5.9970761100000001    1.5488692500000001    0.8808424141387725   -0.7684513534209196    0.1780991165198600
  97 2    5.2545450400000000    7.1741711099999996    0.8439352700000000   -0.9430893899115576    0.8632721406097418   -0.4085644634646453
  98 2    9.1459865199999992   10.8676504900000008    3.5999253800000002   -2.1812284274725435    0.5422321065880822    0.8759820919131904
  99 2    9.1962395000000008    3.3834953600000000    9.0509243799999997    0.8820500917568950    0.9359206008602428   -1.0090177763064663
 100 2    7.1961840099999996    5.9043847300000003    1.6130177100000000   -0.3310526081170586   -2.5423230644082153    0.7082132881518248
 101 2    8.7533348699999998    3.6848508700000000    1.3186781700000001    0.1483033636604389    0.1514341991787234   -2.1417338852357837
 102 2    9.0494758799999993    3.5659999700000000    3.5588294199999999    0.5171078054222669    2.5759484007994815    2.7664393409388532
 103 2    7.1367621699999999    5.2613336000000004    4.5414043599999996    0.6205934837326093    4.5378853731868585   -3.7731226928506163
 104 2    3.2418811700000001    9.3051311900000009    1.6329740900000000    2.0232821224204365   -0.7078827769180420   -0.7340932940142473
 105 2    9.1155543699999999    3.4867889600000002    6.2457008399999996   -2.4668261264383808    1.2670248552136556    2.4648045391839806
 106 2    7.2934387799999998    1.7093592799999999    6.7606757899999996   -0.5421803063852577    0.8508596387870928   -1.4292994582243175
 107 2    2.1277929200000001    3.5278868900000000    8.7864617900000006   -0.1896014815609419   -1.7723867051917566   -0.7859702523684087
 108 2    6.9259656700000001    9.2839186199999997    6.8249149100000004    4.8200218028772284    0.3841759620663652   -1.3519339140547970
