96
Lattice="10.4662 0.0 0.0 0.0 10.4662 0.0 0.0 0.0 10.4662" Properties=species:S:1:pos:R:3:forces:R:3 stress="-0.023385251272292188 0.012989304150255643 -0.0058635520753692934 0.012989304150255643 -0.017117246266086572 -0.004734116901676363 -0.0058635520753692934 -0.004734116901676363 -0.029632572635028182" pbc="T T T" energy=-927.02253777 free_energy=-927.02299033 config_type=crystal 
Hf      10.05441919      10.33504491      10.13805658       1.87018970       0.50762520       1.21925264 
Hf       5.40509724       2.33427617       2.43441154      -5.71734312       4.13530369       3.29376307 
Hf       0.06097524       2.46220286       7.39830172       0.31562149       3.98122084       0.50982436 
Hf      10.24395883      10.44126219       5.41280989       2.62347870      -3.01466151      -1.89742924 
Hf       7.59819306       5.40397369       8.05302522      -5.62525632      -3.16465706       0.11012857 
Hf       7.83876233       7.63802626       5.09229978      -1.44988775       2.40064036      -0.72209857 
Hf       7.76382904       2.64465708      10.14265365       0.81616620       0.59196897      -0.12905585 
Hf       7.99239693      10.25476758       2.46083178      -4.16950642       1.91566620       0.60226480 
Hf       2.68910651       2.26849317       4.88256697       0.21396760      -1.41063221       2.22262391 
Hf       4.76223854       2.65906245       7.45448784       0.59656465       0.39983926       1.87120056 
Hf       5.27022801      10.04762233       4.96483706      -4.12264616       0.69456832      -2.67124730 
Hf       2.69601850       2.88124742      10.25153845      -0.52794795       2.83675200      -1.74192329 
Hf       2.48702648       0.22345316       2.16886604       3.29202052      -4.34749597       2.61573053 
Hf      10.32105275       2.34465424       2.76905656       0.88263928       0.65128566       3.09735370 
Hf       2.61655931      10.19867336       8.06472601      -2.07958325      -2.83704571      -5.28404177 
Hf       7.51812066      10.26188334       7.70412712       2.87694657      -2.99909531      -0.41428074 
Hf       2.29844367       5.38135016       7.18389240      -0.25444011       0.41964964       1.50885927 
Hf       5.25769128       5.20930750       5.00019712       3.34531123      -2.92217329       5.48630075 
Hf      10.00452221       4.98748791       4.92595963       2.18209567       3.39164667       3.32531611 
Hf       2.37767981       8.04992199       5.08461696      -3.65831307      -1.66786204      -0.67158097 
Hf       5.24741044       4.91363944       0.01807858      -3.32839691      -2.07883105       0.22379106 
Hf       4.84697017       7.65793674       2.23870145       0.74903959       0.38504881       2.33360839 
Hf       4.91036038       7.92145368       7.78250901      -0.54039359      -2.80870523       0.60447870 
Hf       7.31653819       8.03088167       0.20155421       3.13116739      -4.66587070       0.96772065 
Hf       7.60065596       5.07683723       2.32164462      -0.53825634       2.45863015      -0.30393050 
Hf       2.89943202       4.96523854       3.04822497      -2.15702692       2.04932646      -3.34916008 
Hf       0.16157447       7.62471629       2.40747677      -0.43647460      -3.02635739       2.63030586 
Hf      10.38948003       4.94609838      10.14929048       4.45110628      -0.00831953       0.26565335 
Hf       7.61412690       2.44701588       5.51226673       0.37663185       2.64693172       1.57021360 
Hf       9.94461347       7.42486368       7.87362660       2.33739289       0.68009420      -2.65718294 
Hf       5.49059500       0.05902225      10.22469788      -3.66885445       1.11079882       2.96835016 
Hf       2.24452672       7.55383835       0.00980045       1.67497538      -2.20719339       0.79912128 
O       0.70471206       8.62945642       0.92026010      -0.46693697       1.35086677      -1.54913023 
O       1.38329567       6.28301654       4.23384133       0.57668078      -1.70441516      -5.39399760 
O       4.03020561       1.25333907       6.16723441       1.25774779      -0.36948018       0.65091469 
O       1.13194214       0.81438570       3.99217437       0.37880914       2.02559024      -3.72469606 
O       1.16786412       3.71475319       0.74336154      -2.12600876      -0.85420168       1.49923826 
O       2.64598975       1.54937658       8.11119416      -1.97042737       4.18482727       2.48908745 
O       3.88607421       3.74260971       4.15085986       1.47396506      -0.06981766      -0.67546350 
O       3.92334613       3.66414576       1.39210016      -0.20800688      -1.78413960       0.05392157 
O       3.92713144       1.15951304       3.70391303      -1.57395994       0.88411180      -1.29191192 
O       1.53655140       3.41250399       3.61256843      -2.37194364       0.09643018      -1.94749832 
O       1.36587134       0.64267492       0.66362710      -0.01620859       1.59671280      -0.43079733 
O       3.80956231       6.04023628       1.39989465      -1.75793669       1.65550855      -1.06013118 
O       4.28084472       0.83548346       1.32102524      -1.35300616      -0.48073484      -0.27200858 
O       9.09170274       1.56668485       4.30250170       0.75993536       1.15245952      -1.80870149 
O       1.19702411       9.28738687       6.60667948      -1.12747987       0.84951276      -1.09571945 
O       6.18387305       1.40605411       4.84987967       0.05041996      -1.76031267      -2.55178588 
O       6.41881611       8.88551556       9.07148193       0.76643254       0.64979739      -1.08062550 
O       1.21524524       1.43845192       6.27486410       0.05022095       0.09655780      -1.94810256 
O       3.62467019       4.63028288       9.13362981      -1.79811551      -2.01612008       0.70972995 
O       1.77303896       8.97436847       9.30821921      -2.96140343       4.20753271      -0.78268652 
O       8.76587852       4.67814712       0.57472113      -1.32295138      -1.27514459       2.84694664 
O       3.55844740       9.11767744       6.06962611       4.24401218       1.40631699       3.69256221 
O       9.13110955       8.98254739       8.81195994       0.63828073       2.75376629       2.34630525 
O       1.31392821       6.16256282       1.25002788      -2.52642989       0.84614596       1.53358412 
O       1.51307279       8.95210435       3.32596118      -0.81667331      -0.96740858       0.24274025 
O       4.52400344       6.09331740       3.64667150      -2.65979310       3.70285712      -3.76749777 
O       3.63367761       8.76198237       1.22128361      -2.67210508       0.49304873      -2.34105796 
O       4.12207823       9.08592916       3.63041299      -2.15508776      -0.94069551       0.16484310 
O       0.90497181       4.13043852       8.59696044      -0.05244988      -1.92780435      -0.68957459 
O       6.78571283       3.53915474       1.09377515      -2.61897088       0.47717444       0.85498124 
O       6.92366122       1.53710936       7.29147845      -0.91435301      -0.05297770      -0.19202575 
O       6.09177949       3.83519068       9.01650529       0.84414304      -1.74428631       0.66492018 
O       3.75209680       3.89275227       6.38354429      -1.13946759       0.46107686       1.50075432 
O       1.05563485       4.26496656       6.04063159       0.50923965      -1.21100804       0.06003022 
O       8.42819778       3.68886347       8.78610655       2.50963976       2.87467300      -1.75995511 
O       9.14985682       3.62514190       6.42447058       0.16604782      -1.90679799      -1.89923900 
O       6.39685729       3.81216054       6.59705623      -0.10904900       0.08200198      -2.47445134 
O       7.30745730       0.69853209       9.72705278       0.09557695      -0.44913966      -0.77088310 
O       6.60227185       1.18310710       1.84818795       5.13358554      -3.94519720      -1.50427757 
O       9.79420067       1.70961107       9.07590652       0.31779755      -3.03995073       2.95436647 
O       6.19429226       9.17140222       1.32585037      -0.19592945       0.54125567      -1.39926904 
O       8.88577104       8.79196406       6.45693558       0.05993674      -0.04794275       0.91015656 
O       0.85479235       6.53427797       9.24591811      -2.68807743       0.78944498      -1.33057087 
O       8.34088204       6.66389464       9.40596902       1.99666807      -0.48201373      -1.94452100 
O       8.40392164       7.20061875       1.90971602       1.44846234      -0.77816365      -0.87495522 
O       8.72617279       5.88641025       6.57025543       1.74699582       2.88588345       0.16941284 
O       6.17688697       9.16573268       6.41331979       1.85859040       0.01178721       2.45786008 
O       5.70137485       6.36187747       9.38111420       1.12005983       4.02316451      -2.54381881 
O       3.29618965       6.31491888       5.77009006       2.94969848       0.29848442       0.22132671 
O       6.12141663       6.14679832       1.32985327       2.59088225       2.24274215       0.82457547 
O       9.45293201       6.96647970       4.34474998       1.79664664      -0.68666024      -1.30553452 
O       9.42104841       1.42917416       1.35618560      -1.53239622      -0.89024923      -0.68455754 
O       8.72571751       9.65828377       4.03302855       2.06221545      -1.93935358       2.45621298 
O       8.81958206       9.41125948       1.04914173       0.94669712      -0.79073916      -3.58065307 
O       6.36856862       3.88465531       3.48833684      -0.89718270      -0.59338209       1.21189443 
O       7.01645895       6.25887939       4.12741264      -1.57396690      -4.41035436      -0.51520738 
O       6.34095617       8.49096672       3.62950411       2.31938932       2.17282625       2.15734706 
O       9.41646390       0.77388328       6.82920649      -4.21875588       1.32289508       2.51146019 
O       0.99735204       6.87215632       6.28737435      -1.97072131      -0.22728617       4.40158741 
O       8.80885023       4.13470339       3.60480524       3.27623228      -1.96437606      -0.62131465 
O       3.06558891       7.22365381       8.45361139       3.05876492      -0.03932782      -0.83874885 
O       4.30255864       9.72872141       8.83733650       1.27713341      -0.14597212      -0.11486614 
O       4.18115082       1.92066283       9.68047044       6.16767746      -2.06371801      -1.09318630 
O       6.06855468       6.43102368       6.74491768      -0.14771587       1.15960314      -0.15059290 
96
Lattice="10.4662 0.0 0.0 0.0 10.4662 0.0 0.0 0.0 10.4662" Properties=species:S:1:pos:R:3:forces:R:3 stress="-0.03432995897327227 0.007242867415082931 -0.007535858758175683 0.007242867415082931 -0.018635052435786986 0.0069611328896005825 -0.007535858758175683 0.0069611328896005825 -0.036404013441961716" pbc="T T T" energy=-928.2101366 free_energy=-928.21018743 config_type=crystal 
Hf      10.05908994      10.26604177      10.31731977       7.67978006       3.25601070       0.13583711 
Hf       5.43755460       2.33159284       2.27987066      -4.57114705      -1.25599159       3.24173885 
Hf       0.07004012       2.54808682       7.35678366      -0.43556455       2.35737323       4.17306587 
Hf      10.25485738      10.46180566       5.58611530      -3.21591848      -0.68936776      -1.67146398 
Hf       7.58416186       5.36119708       8.03874001      -2.00438832       0.32867984      -0.34214723 
Hf       7.96785997       7.66825191       5.14259511      -0.57008370       1.67057822      -2.77843462 
Hf       7.74759126       2.67938069      10.11386815       2.08800579      -2.74935818      -2.87007335 
Hf       7.93330665      10.25305144       2.57280851       2.05860636      -2.77109854       3.85493095 
Hf       2.64060646       2.22999221       5.01173725       4.08981360       2.38386514      -4.85011535 
Hf       4.78620865       2.65776705       7.63184116       0.66356923      -0.23712711       1.03485191 
Hf       5.21243553      10.05437910       5.00756082      -1.14346225       0.35448861      -1.36148772 
Hf       2.69236548       2.81184804      10.16639036      -1.11054767       0.35502745       2.52625485 
Hf       2.49396181       0.21217625       2.22941761       1.74653816      -3.77375292      -1.18825248 
Hf      10.40260548       2.28612736       2.68824378      -1.39098523       3.54516033      -0.19324633 
Hf       2.66410213      10.24626495       8.03810544      -1.58835210       1.23702383      -0.84628361 
Hf       7.47151488      10.23197921       7.75139331       5.49937310       1.05141172       2.46113404 
Hf       2.33762043       5.37453761       7.13752305       1.60713504      -0.71782220       2.98766576 
Hf       5.18764854       5.22145886       5.16259193      -0.93750408      -1.90497300       0.84615143 
Hf       9.95332166       4.93942324       4.90271755       3.04137852       3.08242493      -1.34835271 
Hf       2.40197814       8.13705656       5.06091897      -0.01470737      -1.16897229       2.53074299 
Hf       5.26501657       4.85144416      10.40086046      -4.22889646       1.78780244      -1.10012045 
Hf       4.81372983       7.61143814       2.29656676       0.66422522       4.00946445      -2.75867269 
Hf       4.96755524       7.78613587       7.75576913      -1.72913448       1.24629570       1.57983398 
Hf       7.35722178       8.10998500       0.15952927       2.16498192      -2.79319994      -0.36399353 
Hf       7.50067570       5.02446855       2.10249139       1.70958253       0.67321562       3.38769093 
Hf       2.83570752       5.08475009       2.95657894      -2.09383932      -1.46731836      -1.54264301 
Hf       0.05316474       7.62315180       2.37630801      -0.46139689       0.04495067       1.24696773 
Hf      10.39881641       4.92360337      10.09747829       0.06400613       2.36183342      -2.23999953 
Hf       7.65120289       2.34530461       5.36918090       0.45425620       0.32932376       1.47439743 
Hf       9.95095442       7.40490903       7.78245919      -1.98185132       5.75724457      -0.63349489 
Hf       5.48622285       0.03925306      10.31686941      -1.58857371      -0.33078931       0.26044565 
Hf       2.17703773       7.62150149       0.09971494       0.22813005       1.03523328      -2.43070192 
O       0.87104845       9.04941971       1.15739102      -0.38174038      -1.20359378       1.05218894 
O       1.21371037       6.17794238       3.86834499       1.73426236       0.70391938      -0.51675533 
O       4.33581237       1.34799810       6.23427178      -1.30323494      -0.18025574       1.38444035 
O       1.20992883       1.22740079       3.54384381       2.76393773      -3.63694883       1.88487128 
O       1.12303959       3.86671320       0.55045765       0.31619153      -1.69546327       1.87035725 
O       2.61231203       1.92227661       8.53495951       1.02230088      -4.34885231      -3.81540018 
O       3.71782921       3.73359633       4.07466739       1.07808225       1.90720352       0.76059904 
O       3.79312378       3.71018155       1.45822383       1.53560770      -0.46831261      -1.27029584 
O       3.88060447       1.09688905       3.86118203      -1.70367874       0.17825075      -0.98886670 
O       1.40825966       3.50839353       3.35876664      -0.07474696       1.97959764       0.34738966 
O       1.86160478       0.91956714       0.48789991      -0.37971072       2.18888517       1.44798805 
O       3.57710979       6.35004847       1.28264380      -1.11963402      -0.99342637      -1.12406088 
O       4.22389583       0.44597253       1.38004540       1.33955391       3.45963307       1.97610005 
O       9.35803655       1.46861718       4.18466045      -2.21312722      -0.33831020       0.57116819 
O       0.95452581       9.21933679       6.39237546       3.52709249      -0.98406162       0.23314284 
O       6.18356545       1.30305687       4.69513073       1.71065718      -1.25143024      -2.35294429 
O       6.39435200       9.15506699       9.16263353       2.19512628      -3.34684093      -0.72860601 
O       1.44969712       1.61894374       6.31998326      -2.96765408      -3.10065258       1.36123582 
O       3.52575392       4.31940074       8.97898951       3.68216139       0.58266406       2.15718559 
O       1.39693125       9.43202630       9.27705234       1.50211862      -0.16311309      -1.34440573 
O       8.38990802       4.50341558       0.26365038       1.80904631       1.10033512       2.17784596 
O       3.78764745       9.23545390       6.25112236      -2.18458581      -0.92406835      -0.51869137 
O       9.25723490       9.18225881       9.10836367      -3.34159419      -2.60669140      -3.97276992 
O       0.80716412       6.33771070       1.10186521      -0.24207757      -0.28933311       0.54850874 
O       1.57104078       8.97226539       3.60992771      -1.19698119       0.30202105      -1.39546904 
O       4.32556994       6.40130187       3.63956328      -2.10978804      -2.68843348       2.04341111 
O       3.41301966       8.85977143       0.93804615       0.04404490      -1.52189658       0.42531567 
O       4.25766199       9.14434500       3.42314434      -1.90626204      -0.32359480       2.19513710 
O       1.33199999       3.97201040       8.49179009      -3.79431347       0.57787533       0.68220086 
O       6.40613903       3.51233584       1.05863405       1.07883459       0.84914341      -0.76528916 
O       7.18011505       1.63703927       7.25534986      -2.79407123      -0.39384791      -0.83221168 
O       6.13620150       3.54707828       9.10351855       1.41708102       2.27364678      -0.69638619 
O       3.89234137       3.95824975       6.49912494      -0.67923113       0.31300447      -0.01604997 
O       1.10342289       4.36732463       6.01812696       0.59676325      -1.54320514      -1.29438785 
O       8.70261840       3.81550585       8.42938349       1.39420780      -0.47512187       0.93067884 
O       9.42712069       3.44830341       5.99007995      -1.83355801      -1.47549756      -0.14569379 
O       6.70381074       3.68184442       6.36505825      -2.26660000       3.84689138      -0.03299702 
O       7.39089479       0.76483923       9.59707524      -0.98964569       0.91925848       1.45270617 
O       6.80746683       0.96666326       1.75519754      -2.17448126       3.79909383      -1.23859990 
O       9.92020503       1.52037683       9.58137856      -0.00577135       4.84753656      -4.00168935 
O       5.97660168       9.15300023       1.26885877       2.93782810      -2.53418139       0.61170233 
O       8.84156673       8.98672947       6.55101720      -0.18875675      -1.32968362       0.89136388 
O       0.48050021       6.84578537       9.22563650       3.88884929      -2.70884309       3.31145461 
O       8.71676703       6.81816716       9.29097845      -4.27941471      -3.06803199      -1.38739998 
O       8.24444794       7.08484196       1.72770305       3.78500132      -0.12900038       0.10715490 
O       8.77833424       6.09824740       6.51512860      -0.40082218      -0.14024823       0.20655808 
O       6.28574257       9.26936439       6.69306520      -2.48992663      -2.14528813      -3.39867321 
O       5.80333751       6.64244228       9.35933226       1.31952768      -1.79921394       1.03796236 
O       3.57046574       6.57956868       5.96186800      -0.00502952      -0.39424528      -0.10043339 
O       6.28575397       6.33622429       1.35767745      -3.50190077      -1.26881649      -1.31006780 
O       9.43151492       6.99884151       3.91604804      -1.72643620      -2.12096647       3.03509219 
O       9.46408699       1.34868824       1.28797727      -1.87117851       0.10829424       1.75618961 
O       9.00803834       9.34715222       4.26872570       0.69037949       1.60825811      -1.63206775 
O       8.84250461       9.53532644       1.05071574      -4.70207280      -3.90527499       3.27824589 
O       6.17184844       3.78371969       3.49628759       1.22255269       0.01217079      -0.49660566 
O       6.60319215       6.14068302       4.38762446       4.31849618       1.06592706      -0.69556700 
O       6.59472028       8.63748986       3.92650483       0.42991777       1.67312589       0.16509449 
O       9.27234045       0.92133372       7.14942490       2.78053487      -0.13409094      -2.52046029 
O       0.92460106       6.69171977       6.81856048       1.69900286       0.14237034      -2.90062603 
O       9.05381331       4.03031802       3.32795436      -0.18072016       0.42546955      -0.80591603 
O       3.26264056       7.15471274       8.59592366      -0.66427610       0.31058298       0.58687209 
O       4.42041705       9.76446118       8.55061150      -1.61007137       1.08601098       1.51837074 
O       4.75552080       1.71605626       9.93424984      -1.44350797       4.08848025      -1.82941052 
O       5.90569935       6.31311911       6.93104460       2.18482681      -1.76055763      -1.20195240 
96
Lattice="10.4662 0.0 0.0 0.0 10.4662 0.0 0.0 0.0 10.4662" Properties=species:S:1:pos:R:3:forces:R:3 stress="-0.03941937414394706 0.0005569188180729195 0.0009730922045420475 0.0005569188180729195 -0.0184403364812849 -0.015443553032027867 0.0009730922045420475 -0.015443553032027867 -0.03159820891327289" pbc="T T T" energy=-930.65759619 free_energy=-930.65761713 config_type=crystal 
Hf      10.12170963      10.25359139      10.41948380      -0.77008217       2.95300588      -1.63611171 
Hf       5.41001771       2.32299685       2.22059963      -4.36626769       0.40931265       4.21100631 
Hf       0.07292147       2.62452807       7.37196447      -1.71689728       2.08145100       3.12233095 
Hf      10.24208077      10.46024662       5.67140112      -1.73046878      -0.67514113      -1.86369241 
Hf       7.55010359       5.33278940       8.02794904      -1.80634802      -1.25491864      -1.37885206 
Hf       8.03794856       7.70453226       5.14554186      -0.94346487      -0.05318288      -1.36740782 
Hf       7.76043716       2.67972765      10.06759278       3.28900282      -2.04300022       0.00607687 
Hf       7.90676908      10.23155753       2.68389592       0.04826856       2.30535587       1.71908760 
Hf       2.64388217       2.22240233       5.05407230       2.64378256       3.05884309      -3.04471180 
Hf       4.81192651       2.64692773       7.75511939       1.43640879       1.95367979       1.44828145 
Hf       5.16027712      10.05772232       5.01782335       0.64703935       1.66940181      -0.47112935 
Hf       2.68240542       2.78147973      10.12986521      -1.37339298       4.79592054       3.62430371 
Hf       2.52400378       0.16235316       2.26805453       0.52373840      -3.98341866      -2.83475920 
Hf      10.45010319       2.28465895       2.65879096      -2.30037155       2.05993798      -1.97729414 
Hf       2.67151524      10.28725017       7.99616623      -0.88399268       1.06471587      -0.22644348 
Hf       7.49406211      10.21013563       7.79664948       2.35457772       1.14651822       0.79266410 
Hf       2.37461018       5.36394027       7.14443535       0.95422640      -1.66018514       2.39082258 
Hf       5.14885829       5.20894621       5.27343632       1.26772714      -1.89343120      -1.52079910 
Hf       9.95578028       4.94486085       4.88549594       1.28578739      -0.52343458      -2.99176652 
Hf       2.40587178       8.17368879       5.06580449       1.48503700      -0.93895889       0.67793468 
Hf       5.23232247       4.82721794      10.34452038      -2.82621942       1.73537963      -0.62999454 
Hf       4.80014847       7.61955666       2.31495263      -1.41097013       0.62489701      -2.56521064 
Hf       4.98460175       7.71188801       7.75462454       0.81529530       0.34417073       0.51732750 
Hf       7.40376434       8.12209031       0.13545994       3.48944561      -7.43929398      -2.25649953 
Hf       7.45639028       5.00573457       2.00447061       1.22029872       1.16651225       5.44682233 
Hf       2.77009355       5.15603706       2.87612160      -0.38668308      -5.45177495      -2.50192115 
Hf      10.44582859       7.60764874       2.38706098      -2.06349803       1.46022453       3.03773820 
Hf      10.41751794       4.93213259      10.04453826      -0.17344945      -0.45092125       0.08838622 
Hf       7.67256493       2.29280898       5.30218404      -1.84866315       3.06887189       1.83693168 
Hf       9.94606461       7.44136113       7.72477923      -2.48311995       4.26815314       4.36830193 
Hf       5.45993866       0.03492477      10.37630644      -0.89222997       0.89254476       0.08010135 
Hf       2.13845231       7.66420861       0.12704177      -4.52797224      -3.24404448      -5.16053270 
O       0.97448538       9.33940640       1.21184048      -1.80842472      -1.99611087       1.21397612 
O       1.27565855       6.16141133       3.50386418      -1.37373695       2.71872963       2.26710377 
O       4.39381762       1.37309783       6.44003958      -1.76327692      -1.47025374      -2.49504530 
O       1.44684142       1.22708387       3.37375361      -2.39072243       0.76232665       3.15738475 
O       1.10542707       3.75184143       0.66048211      -0.99287883       1.27091791      -0.62483209 
O       2.65574927       1.84706043       8.51803912       1.69193627      -3.77822139      -4.72948970 
O       3.88792725       3.77609213       4.23205946      -2.62813891       0.75575634      -1.28774736 
O       3.85890416       3.64032930       1.36197644      -0.10932018       0.80555111      -0.32163195 
O       3.66169772       1.12722230       3.79044893       1.56428428      -0.35724646       2.51547131 
O       1.21135893       3.71026298       3.19252540       1.72534665       0.43627228       1.88032531 
O       2.03947000       1.29352080       0.44463484      -1.68675852      -5.21145124       4.67810924 
O       3.31932937       6.45453924       1.09020408       1.55163508      -2.61725215       2.43578258 
O       4.26393993       0.56267118       1.66310388       3.69822042       0.84208526      -2.68682928 
O       9.30248981       1.42901130       4.11781084      -0.58061060      -1.95165376      -0.01919461 
O       1.08480290       9.13461803       6.25249448       1.17699000      -0.10378263       1.30317095 
O       6.45547230       1.18504607       4.34090271      -1.61731599      -3.25826462      -1.74845441 
O       6.59743155       8.94302252       9.07773570      -1.72495583       2.00074909      -0.88762623 
O       1.33274623       1.44507200       6.36473244       0.14634913      -2.12268423      -1.06515259 
O       3.79208595       4.14108223       9.12050321       1.65457752       2.20211398      -1.47752075 
O       1.19370643       9.67525137       9.24333443       2.83668119      -0.52925050      -2.46689142 
O       8.26197736       4.44894781       0.36824163       3.81769939       1.41591418      -1.12267962 
O       3.83017371       9.26733551       6.39287260      -3.20145691      -0.44423976      -1.97272099 
O       9.08507344       9.16154819       9.02802292       0.08542872       0.43619717       1.48008436 
O       0.44516506       6.41952446       1.10453943       2.14805850      -1.79511057      -0.95933591 
O       1.48141839       8.98649764       3.64881414      -0.15027207      -0.09597940      -0.93653085 
O       3.96027873       6.46411686       3.68400758       1.33044654       0.36957188       0.17496009 
O       3.26756711       8.80132377       0.79210891       6.57751752       5.42928370       3.40064621 
O       4.08391815       9.11846272       3.49850768       0.23662393      -0.70372450       1.74661985 
O       1.21812941       3.88787492       8.52067942       0.25812848       2.55651196       0.24720508 
O       6.22013760       3.58242693       1.01957544       2.99624292       1.30020259      -0.95944826 
O       7.04779329       1.73571712       7.11813934      -1.55900122      -2.36855895       0.59312820 
O       6.32654484       3.56341455       9.09523100       0.48362556       4.00702875      -3.05845634 
O       3.81286408       4.14311885       6.48245668      -0.04405248      -2.23973885       2.81285405 
O       1.16024578       4.19575211       5.84094414       0.89641760       0.68744598       1.02010978 
O       9.01493881       3.88247446       8.28206346      -0.35987398       0.52259637       1.21026530 
O       9.41488005       3.18163008       5.67803711       1.10454977       2.29512527       1.02449130 
O       6.69829086       3.93219540       6.16314244      -0.66474038      -0.11707206       0.23746734 
O       7.36261847       0.88984522       9.66665192      -1.24782615      -4.29581320      -1.66828291 
O       6.78330299       1.17990674       1.56947095       1.37658998      -2.07216752       0.06925008 
O      10.00730957       1.75532146       9.58447352      -0.29121276       0.48221745      -1.84772836 
O       6.13720845       8.91390419       1.24770333      -2.75220621       2.17192669       2.58454974 
O       8.81389002       8.97455268       6.73297397       0.52366323      -0.55418059      -2.20234914 
O       0.49141907       6.81130144       9.41541581       1.14046979      -0.77766779      -1.98841540 
O       8.59903578       6.61234044       9.02057758      -0.22118268      -0.29741737       0.51107793 
O       8.51873585       6.99695592       1.59647019      -0.37437126      -1.93166031       0.28689350 
O       8.79807789       6.27345692       6.52137451       0.09536276      -1.65053148      -1.01785830 
O       6.18659866       9.14659523       6.63497705       0.72044570       0.23315897      -1.24102879 
O       6.01152530       6.73804704       9.36659894      -0.33211177      -3.24380602      -0.07369889 
O       3.85915389       6.71799369       6.02297155      -2.44912717       0.02376724       1.31564913 