1536
Lattice="21.105598636581512 0.0 0.0 0.0 21.105598636581512 0.0 0.0 0.0 126.63359181948998" Properties=species:S:1:pos:R:3:forces:R:3 pbc="T T T"
Ar    1.4102613692638457    0.9647607662828660    1.3209769521273491    0.0019808268568920    0.0205326651355857   -0.0171774861496421
Ar    3.7887497711918066    3.6568210585342928    1.3940839238261655    0.0159924490724765    0.0035814481937398   -0.0483763980054179
Ar    4.1544327050008629    1.1927427928908958    3.8967929595577209   -0.0202853291481724   -0.0056662413044936    0.0201747257914244
Ar    1.1809679858999251    3.7121735474722226    4.0720897454802820    0.0426941603205596    0.0170905271518307   -0.0734776699020113
Ar    6.8847811757401374    1.0730399313705559    1.4473413417022878   -0.0575669362616101    0.0717885292742206   -0.0682536204422093
Ar    9.3462509444622768    3.8751427464343617    1.3125306247997250    0.0277148269047547   -0.0368892673850065    0.0601449540985246
Ar    9.1098851306448392    1.2412407903508040    4.1879422138991842    0.0220936295927810   -0.0473875161499578   -0.0703731249115766
Ar    6.7477502621404222    3.8933335016484332    3.8761846473751347   -0.0262744549484046   -0.0126392414660997    0.0368088289462779
Ar   12.1592615206409054    0.9179259754227654    1.2733159704224071   -0.0191330534515364    0.0894304229601090   -0.0080025079762431
Ar   14.6444408957252197    3.7886108704657229    1.0999873728770571   -0.0634453920141396    0.0025539835735564    0.0038822717992576
Ar   14.3984790739190665    1.1365185997140532    4.0036081075519210    0.1041474674071710    0.0058836363478942    0.0206394202307044
Ar   11.9327964169472356    3.5090365413439515    4.1085248875980120   -0.0548561842403182    0.0933820531723224   -0.0674809977320196
Ar   17.0698089896871501    1.2107761759514788    1.5246769129875306    0.0020173071504494   -0.0604345011252818   -0.0239965901254415
Ar   19.8471425418809737    3.6051789632015465    1.1629404266706056   -0.0057595711114567   -0.0005223029814211    0.0106566207840660
Ar   20.0206266966397557    1.0014668776526952    3.8825375401482782   -0.0390708682370079    0.0141647982698527    0.0263009786489883
Ar   17.1847265517342969    3.9240311479554939    3.6345581175124293   -0.0092908387611319   -0.0498267476156840    0.1163640536337271
Ar    1.0761839007061369    6.3010345464545079    0.8606625909297717    0.0816707087575375   -0.0404239167699115    0.0724957036445673
Ar    4.1510895824819833    9.1749638746386140    1.1611927006150680   -0.0680636310170226   -0.1155395366458081    0.0512478741355726
Ar    3.9000417940549283    6.2464370919389527    3.8597786412449544   -0.0209883824340525    0.0304378809535206   -0.0127738558349317
Ar    1.4050727069158280    8.7382938871220297    3.5867317056209016    0.0074665769005290    0.0313359042771902    0.0314602696877023
Ar    6.3983995274651457    6.3021997079184526    1.3481078990969564    0.0287066458700265    0.0286610875565231   -0.0395894210519900
Ar    9.2392943252752300    9.2680015068111370    1.1247615223752072   -0.0260986719475745   -0.0656813032820961    0.0969345773334414
Ar    9.2714719811158215    6.5414371712493136    4.0133744239630147    0.0086786950800974   -0.0389008190451097   -0.0496608815899037
Ar    6.3426199086334876    8.9949723672706376    3.9941415406572793    0.0549526779103102    0.0090321933656453   -0.0273121247906705
Ar   11.9219039264580857    6.5118171429146638    1.0765094298503139    0.0384889423798704   -0.0234480668669300    0.0663329826388165
Ar   14.3976128130196503    8.9965123585863100    0.7986725353300347    0.0404704471695768   -0.0399681095864640    0.1332865190779293
Ar   14.3782731283654996    6.5024738581928734    3.9213395768732582    0.0024085863219013   -0.0243779795044030   -0.0469170385821553
Ar   11.9490069240604520    9.2498634666414752    3.8041278698136045    0.0195895021980995   -0.1080448030536735   -0.0206856705971028
Ar   17.1301255568926365    6.3112302490891805    1.2311691246883016    0.0101028499099847    0.0071007688400019   -0.1161829069367921
Ar   20.1241740461771919    9.1004279969617823    0.9289297515656596   -0.1210330861812873   -0.0105262536916626    0.0749671790224591
Ar   19.7393453629919939    6.3630530711706328    3.7515138006451809    0.0988543354049980   -0.0427758442782945    0.0066138486159794
Ar   17.2429897471990294    8.6058709268052809    3.6664673971503969   -0.0447910724226472    0.1625233399131734    0.0503548638911979
Ar    1.7547115488241731    1.2815264723305086    6.7573513845105060   -0.0615605449686358   -0.0742982026774576   -0.0084955168958897
Ar    3.8840866186604339    3.9358979858284369    6.4439199223669172    0.0569834943265632   -0.0042090557057741    0.0473388384077444
Ar    4.1675333072751020    0.9149577902341804    9.5379466782454845   -0.0475138322777934    0.0393119204412963   -0.0558753304693615
Ar    1.4497865273992037    3.7210264344987962    9.3678897420367164   -0.0013111286330023    0.0278643828360754   -0.0141219125103639
Ar    6.5472394988151494    1.1481673546761575    6.5565651108393013   -0.0254403266549489   -0.0062954738113990    0.0241920469246756
Ar    9.2121032359238040    3.6954879849928166    6.7045561622537990    0.0169377104812269    0.0334981249092557   -0.0720687637899470
Ar    9.0642569565932671    1.3302465090898072    9.2562055016589468    0.0549187437338081   -0.0364805506000181    0.0280692021089249
Ar    6.6145070473579981    3.8376208022084062    9.0993649307064910   -0.0624173866720650   -0.0025185121422494    0.0153721600961869
Ar   11.6678861583365592    0.9552392447870420    6.4610544939934416    0.0417272426765568    0.0278061996490565    0.0807313506610544
Ar   14.5454051397625861    3.8959873060028896    6.4218215152164877    0.0173723898922578   -0.0648992584221700    0.0147649873511291
Ar   14.4362397665584261    1.1097570776464776    9.1171364930911771   -0.0037011128051624   -0.0119904494667092   -0.0547143327010506
Ar   11.8462138266099171    3.8485620043579933    9.2555991267896953   -0.0086936172815932   -0.0967436465937855   -0.0833723799962265
Ar   17.3055502761305640    1.0619321496877705    6.6523181288190401   -0.0143403964924809   -0.0054758413204281   -0.0422358726674419
Ar   20.0437041270948129    3.6142260131741195    6.6728477155234707   -0.0712195230873269   -0.0111311993547927    0.0266141734312839
Ar   19.7081118165227593    0.9424820898476425    9.4235465735399639    0.0368420003110060    0.0209299871756646   -0.0719605473055688
Ar   17.0855600675015715    3.6641330138622377    9.0370504737431752    0.0163781959787205    0.0070813483170674   -0.0063628311191206
Ar    1.1848230893587925    6.3908129929683373    6.6228903406671344    0.0114898590498741    0.0178890619998005    0.0003631368543038
Ar    3.8693887066418351    8.9411019976460100    6.5169356670321852   -0.0311271551275990    0.0217508119915277    0.0135802334242633
Ar    3.8447047078065801    6.5192152652157525    9.2207213974585969    0.0136681643286479   -0.0285034138934666    0.0153406509712784
Ar    1.2632063631474730    9.0392031615635062    9.4168090588014373   -0.0152138533291745   -0.0211636537073947    0.0161631316607539
Ar    6.3630270334340580    6.5748672092221039    6.5789052534187631    0.0606169796631286   -0.1032719840634207   -0.0439390248559486
Ar    9.2408300026302825    9.0587641395131016    6.3412361519355791    0.0224986852346437    0.0152116349493361    0.0492833699705714
Ar    9.1984421330543320    6.3065836576117897    8.9425789754862794    0.0251016321229635    0.0488988328376359    0.0385170485251868
Ar    6.7490823267583693    8.9358727364702251    8.9779871088934549   -0.0530848323895425    0.0228353635385361    0.0790626204196872
Ar   11.9897419998133028    6.3987279270558650    6.5788432819764777   -0.0645209148020071    0.0085325283051968   -0.0345278525399735
Ar   14.4909255549304259    9.0756891458985383    6.4471549142569842    0.0169944341560394   -0.0266732765019907   -0.0083623077151011
Ar   14.5080835158887034    6.3316891143978333    8.9706876320694136    0.0464985997614809    0.0311436523718146    0.0223711943732327
Ar   11.8678748136810306    8.8884585656303390    9.2513520323152072   -0.0381875855951103    0.0695449704594497   -0.0895997144880796
Ar   17.2542029665432963    6.2488202338287131    6.4338942127555354   -0.0023297162300957    0.0238607116064234    0.0124528525207582
Ar   19.8028804130300209    8.9992383021000304    6.4422154943347207    0.0015991365529590   -0.0754288651582772    0.0170041876008150
Ar   19.5662187789237407    6.2833222790238272    9.2361035590662990    0.0319023152168440    0.0299802831316168    0.0110590037759188
Ar   16.9946003037572488    9.0651309145659020    9.1768205327208836    0.0415784591069763   -0.0463755754052391    0.0019084284698094
Ar    1.2750151369571652    1.2944660266326595   11.8579486701102255    0.0196769324436404   -0.0381361539411194    0.0134677502054719
Ar    4.3120338956913811    3.8612683746561780   11.9807667854627731   -0.0633630963645930   -0.0151197654856786   -0.0628624543470557
Ar    6.5894596518601283    1.0246698795675149   11.8806652851836869    0.0904706649590746    0.0022239874435120    0.0060691636936338
Ar    9.2403260370733307    3.7738278723996697   12.0523494640394286   -0.0066608752592893   -0.0470586158423194   -0.0746340132008786
Ar   12.1528886304516917    1.1506812029413676   11.7623456573576419   -0.1019877752084149   -0.0156855978119424   -0.0062162194758810
Ar   14.6303575549919671    3.7898450310827134   11.5199686626129392   -0.0636724764094250    0.0036571517947794    0.0389118698781434
Ar   16.8830701244050161    1.0849543208444017   11.7970276301303976    0.0451661984624828    0.0048420335786730   -0.0134722110897048
Ar   19.4740841398382081    3.5646048886198751   11.6990258565114651    0.0224557307564720    0.0622027760633420   -0.0093683608909615
Ar    1.2047254155395304    6.2922864167246608   11.9487304045144409    0.0122698351450852   -0.0089508214461324   -0.0161579457322873
Ar    4.1065243622458318    8.9154202342678808   11.9407799897348106   -0.0125284518642096    0.0264214754232990   -0.0189308284441005
Ar    6.7973997596952174    6.4078066068226169   11.6233852439824883   -0.0157985125497342    0.0221991346706949    0.0343394625097107
Ar    9.2801824717434300    9.1174881767381475   11.7269434860694641    0.0677724619937333   -0.0571033505224839    0.0234938718804496
Ar   11.9688681887561010    6.2842489498341774   11.5254994558342130   -0.0568041157131563    0.0314922036964480    0.1094197525963875
Ar   14.2926902857093996    8.9119131187282541   11.6752575273837653    0.0415300276050498    0.0834807359909870    0.0364552168495478
Ar   16.8641631346504006    6.4836530187363124   11.8051812158622429    0.0647618921021104   -0.0007609367074862    0.0011374308009103
Ar   19.8039434316671006    8.8406730987159303   12.2112109694384241   -0.0463862298774333    0.0099497107002759   -0.0578160111600051
Ar    4.2388212296097860    1.1423344121239467   14.3393568627438412   -0.0763851129794145    0.0507269679847680    0.0710457072180298
Ar    1.3926689963878565    3.6585576276145493   14.5132441572988835    0.0166621836703626    0.0247857867592360    0.0029501734193894
Ar    9.0176466765606644    1.1079484664295143   14.6318516248201593    0.0194986665512019    0.0251645313047805   -0.0548489663079615
Ar    6.6172959604442667    3.7608662932593830   14.6054771515474844    0.0079553922960466    0.0317406480926028    0.0215257131964025
Ar   14.4639907359220885    0.9037484829173618   14.2375647494919395   -0.0503952695648789    0.0236524006299449    0.0750383202100673
Ar   11.8766106441222590    3.9495541006385513   14.3962871468767091   -0.0424243425644312   -0.0380515182280818   -0.0565633983359584
Ar   19.7553668822606063    1.4408411029871757   14.4219055595772954   -0.0283725909826417   -0.0568413521392980    0.0366847651657757
Ar   16.7424273398478789    3.6599297723940083   14.2862746423104454    0.0616656675390554    0.0478194729230674   -0.0072470868698211
Ar    3.8822269398533500    6.3746367611108257   14.3918593615481143    0.0243741722221619    0.0125289493545349    0.0317992985055324
Ar    1.3674902741600410    9.1812715983165702   14.4188186238359890    0.0209415631739658   -0.0410442675664888    0.0292874122112720
Ar    9.1479014928011519    6.2310600711577839   14.4769070668904014    0.0329169321193176    0.0501524356430974    0.0327216240930449
Ar    6.8179500655018046    8.7880139630282628   14.7020344843867168   -0.0492511232001790    0.0368729126027806   -0.0116170995721944
Ar   14.2907511059700632    6.5827047430343439   14.2960021226846372    0.0134764275492044   -0.0086712374133452    0.0552378058620728
Ar   11.7330389881057879    9.1838782194248143   14.7878953372807018   -0.0213615032475369   -0.0046924212185694   -0.0537512374989276
Ar   19.5979605667309329    5.8870173207857732   14.3699365772128260   -0.0042158966478107    0.0480955777184551    0.0317967020540253
Ar   17.0086952718933659    9.1604369362366729   14.6176432228211759   -0.0294645404618566   -0.0419688927491994   -0.0112566428019204
Ar    1.1855330960633323    1.3116124907547557   17.2518405870362521   -0.0282039389513748    0.0175348923990458    0.0212665420542278
Ar    3.9131480464242983    3.9999759903198679   17.1323575603840723   -0.0241415818236130   -0.0492220456539348    0.0193002408473672
Ar    3.7097300650470642    1.2561848957235902   19.7648444112994746    0.0132422638009365    0.0429143027405081    0.0407549961402626
Ar    1.2635657744082773    3.9011537679515231   19.8810469487224282   -0.0003211708424965    0.0060194427283382   -0.0305907119464956
Ar    6.5119599709410627    1.3856944156152444   17.3233263737062799   -0.0172231217189334    0.0454212728185369   -0.0304232341871088
Ar    9.2396283024340935    3.7354771102700677   17.4160776450683734   -0.0278237405888914    0.0380923242319062   -0.0535321625327057
Ar    9.1303303771334239    1.5840985732388755   20.1971937780712629   -0.0510518325805534   -0.0637297781459946   -0.0401810485318211
Ar    6.2647997608606323    3.8858374110102609   20.0827407621315608    0.0148587076307577   -0.0218951881669119   -0.0320102484878741
Ar   11.7297233995570380    1.3139949852398722   16.9478447050889116   -0.0245048904689995   -0.0496541030549844   -0.0235074015699548
Ar   14.2863569868334341    3.7036370725511074   16.6970147614887772    0.0412412067389675    0.0340838331140104    0.1237636855514832
Ar   13.9687425462891337    1.1810905468548809   19.5072778885780060    0.1020910662623584   -0.0003936750526194    0.0379725671467626
Ar   11.7366844397265062    3.9687640678236273   20.0648196763730411    0.0448789836975117    0.0270201103901013   -0.0669875903407776
Ar   17.0950236089338077    1.4331652172843827   16.9823921870256989   -0.0303233828259619   -0.0771839106591703    0.0279136338150146
Ar   19.5260935759816583    3.8321308989454024   17.3351337855604335    0.0443584069023159    0.0264373227478037   -0.0093490901130444
Ar   19.5313256884207576    1.1893718839423288   19.8529234909302446    0.0330519223716749    0.0080296156640090    0.0114932108351431
Ar   16.5721269373618973    3.6616098049556047   19.9420272191262278    0.0320355403695106    0.0252668492227750   -0.0288870350757214
Ar    1.2646556378784473    6.4585891171690744   17.0680517654615755   -0.0479616300250258   -0.0303139781206381    0.0072931818862322
Ar    3.8022107138671228    8.8342348834557232   17.0992077255061226    0.0376539643186979    0.0678589215722056    0.0101899530484576
Ar    3.7529209859780157    6.6097476996848847   20.0431395574041353    0.0064097994072201   -0.0268549494844142   -0.0354796814916681
Ar    1.1344422785366119    9.1765533603413996   19.7670521648797042   -0.0192053302597275   -0.0314296757044947   -0.0140636774204979
Ar    6.4265109709937329    6.3821052626581061   17.4146674621355402    0.0390399879381965    0.0019421258569416   -0.0311875704447157
Ar    9.0912820652462667    9.1284019708403275   17.4824736907316129   -0.0291371960108711   -0.0200802902003282   -0.0465280629163274
Ar    8.9183611469481523    6.1829663942005508   20.0066732446229096    0.0110383991786227    0.0729720132061475   -0.0189610750424481
Ar    6.4526487780221995    8.9756490023978817   19.9326412806069619    0.0092443138017273    0.0160223571720483    0.0150517560951007
Ar   11.6574005598820722    6.4944877212768306   17.1161598167566105    0.0173842114036607   -0.0108525518770483    0.0328811593793967
Ar   14.3690013000216013    9.5327517914992335   17.3008296745433725    0.0050498871411498   -0.0633153734316041   -0.0756880028184178
Ar   14.1485064878242479    6.9433462174865115   19.7912715662411820    0.0204434730593337   -0.0645709192384067   -0.0090162880580339
Ar   11.7748161607797783    9.7311628136709594   19.5468057550480552   -0.0206944189852272   -0.1798863960225471    0.0969361509331830
Ar   16.8657921007156766    6.4061774588524738   17.1031316612172226   -0.0150974986722932   -0.0045569152283062    0.0069713036691551
Ar   19.6095680201285276    8.8494140549841376   17.1164564061830653    0.0205476575535485    0.0044723371054913    0.0121046878732554
Ar   19.4135582004495859    6.2381711139147864   19.9770706139762915   -0.0077411246312652    0.0686749408792267   -0.0391265583392976
Ar   16.9591229031689892    9.4110741603216663   19.7014923932215886    0.0368636907471194   -0.0704768611044513    0.0602346460387432
Ar    1.3094701632372916    1.2127946208794380   22.4296513973030223   -0.0305586852216517   -0.0218309948768379   -0.0041945869033510
Ar    3.8731618132309071    3.8014831487757155   22.5765793396525858   -0.0428822256426432    0.0027692902067641    0.0139093581456516
Ar    3.6573831074744514    1.1533751317526006   25.0812941772209754    0.0574062557121308   -0.0385163430715206    0.0131045239869487
Ar    1.3659521741688165    3.7656307594536687   25.3651579983389759   -0.0340992337721109    0.0408922432895507   -0.0594664150686746
Ar    6.4350579669280119    1.1797610433533938   22.6405572416358787    0.0134015826163854    0.0132340851949646   -0.0026469490436708
Ar    8.9462043637612023    4.0455779860880154   22.8404232086402352    0.0227663286085925   -0.0564734872900386   -0.0323618227433785
Ar    9.0634525607584031    1.0594102839857455   25.2403243631543077    0.0074359223444167    0.0294395684110960   -0.0381768568379273
Ar    6.4539673135459781    3.9799059320566625   25.2496592058293601   -0.0092058974283440   -0.0648777774193459    0.0240675636960510
Ar   11.8342847684005097    1.3603092807471187   22.3167138340392945    0.0256690104455751   -0.0434901927567733    0.1061160562183386
Ar   14.4452016261124783    4.3702841376221917   22.6639578321980260   -0.0820132990939111   -0.1214557545757543   -0.0443885117261007
Ar   14.5789620271741089    1.0459881475191586   25.3686926995715005   -0.0840531006356909    0.1002912093830137   -0.0119039081308534
Ar   11.7732264639843507    3.8105866656493963   25.1253123312403552    0.0159317679014493   -0.0116375485502078    0.0083339109417008
Ar   17.0948284636437755    1.2321365612478481   22.6518915054469261    0.0202418035437658    0.0095334600111280   -0.0750598278269984
Ar   19.9606835677421550    3.9776363303975790   22.4961227108433164   -0.0648767300298771   -0.1125892409613372    0.0348837308964571
Ar   19.8037173990301909    1.1177274921491560   24.9808864170927123    0.0121670461790941    0.0439479122836459   -0.0214114348314512
Ar   17.0863681821778464    3.5869814874490427   25.1620227106179968    0.0243149981174102    0.0618368836887776    0.0492996191315861
Ar    1.1615824446024645    6.5129807179749033   22.4486941986841195    0.0238052677746338    0.0361964873212886    0.0227998175163753
Ar    3.7085855227558078    9.0586189510507822   22.6848501649840308    0.0159562270719329    0.0330494997227607   -0.0037922663637264
Ar    3.8922684502642317    6.3956634341128069   25.0848073371765530   -0.0613921945437489    0.0303994052435504    0.0294526643038991
Ar    1.0649874500231653    9.2940001479996788   25.2061510098601289    0.0202950189955961    0.0035232759627334   -0.0128633707046773
Ar    6.3089983475753719    6.5203579628242929   22.7044267971438423    0.0733968880813355    0.0337217028161693   -0.0435979123446245
Ar    9.1961606382398795    9.2808590605950005   22.7006287872188253   -0.0133576138932727   -0.0626907766165124    0.0092048146453107
Ar    9.1395356643093990    6.2459810168385257   25.5929618874344555    0.0056379903505845    0.1111744701422022   -0.0203392314910100
Ar    6.4238761324937332    9.2456386153428518   25.4090785835672293   -0.0115105160770077   -0.0441720950409643   -0.0636827006326895
Ar   11.4948783263782595    6.5332729088095842   22.3960260487478493    0.0414987728657514    0.0562679245328859    0.0614699496160276
Ar   14.2558266379554528    9.4080720189539520   22.2734437424521943   -0.0256633122976915   -0.0603246821956175    0.0572485240354396
Ar   14.3309621340959534    6.5935479291512014   25.2340762698245378    0.0062911200559449    0.0548943238708161    0.0296309913114263
Ar   11.7196716511664274    9.2716604259545878   25.3669060034109179   -0.0288251003111625   -0.0389748874071940   -0.0151645481838293
Ar   17.0812236955919268    6.4183780366226788   22.8954584247163027    0.0543357535965980    0.0347229261180878   -0.0733515336555138
Ar   19.5761624862865808    9.1421175334251235   22.4674080590625707    0.0054394575574190   -0.0083492904888281   -0.0317032132450127
Ar   19.8514723951837162    6.3053070267273785   25.1136097607739828    0.0173430177042554    0.0431849748845441    0.0293299559966499
Ar   16.9338355101959870    9.1374293421458095   25.0313922976936212   -0.0189370902841780    0.0105320723133725    0.0223801667448157
Ar    1.0835198004553466    1.0382237883167826   27.5717887419097991    0.0588016886852999   -0.0052358490972149    0.0602759513852249
Ar    3.9880078408586654    3.6657051429968641   27.7409196103162010   -0.0700803977662680    0.0394059455645715   -0.0357259751397307
Ar    3.8589536337246169    1.2686522656199604   30.3002774724569797   -0.0833553306491853   -0.0665131719933176   -0.0027903740079934
Ar    1.3800019610933068    3.8342305725344730   30.2585707862257038   -0.0254716586256150    0.0111726503343747    0.0207736025831682
Ar    6.4560521731543421    1.0956866313192042   27.7015303374916044    0.0128994645561428    0.0557903191592788   -0.0090100899340279
Ar    9.1231457362428614    3.7043931693384162   27.9166656672651996   -0.0097290886857218    0.0371756799145824   -0.0396989944683670
Ar    9.1727504957330996    1.3348110365313399   30.3372591311795752   -0.0319510828856588   -0.0701002477039166    0.0603350651242885
Ar    6.3304556400739287    3.7286880646114224   30.1960579111197234    0.0754003717265496    0.0548869141095892    0.0771364979702675
Ar   11.6629069109055994    1.1549500076487251   27.6608731332581357    0.0399441854277549   -0.0091422142372896    0.0215183369015663
Ar   14.5072328296503468    3.9548912052933822   27.7859565473804899    0.0351232180197398   -0.0635981011870029   -0.0133988501697467
Ar   14.4343759959767350    1.2556391861071234   30.4481200938351115    0.0141074849969299   -0.0734502428818422   -0.1079413497951739
Ar   11.8232251723831805    3.6385450604952223   30.3249115476861242    0.0174264535452232    0.0653434177145577    0.0128254267880496
Ar   17.2812087870333571    1.1065246147451331   27.9034501370958452   -0.0861273336363134    0.0744631315960179   -0.0596441357045312
Ar   19.9403152793788969    3.9131182498001418   27.9045301279242715   -0.0572789802493711    0.0023023383556723   -0.0286634527888700
Ar   19.7490281827399876    1.0668779407498601   30.2039723820365147    0.0824342587613160    0.0227928782412251    0.0607774102849942
Ar   17.0782182346036322    3.6984073113759250   30.4002902865972828    0.0840007122225818    0.0339236879292971   -0.0618775326052176
Ar    1.5489740567428478    6.6805154532473985   27.6542322610071274   -0.0802950956728961   -0.0360141340929096    0.0191767445225464
Ar    3.7114903239880146    9.4193930059079189   28.0188914700544416    0.0467730730658824   -0.0051978779780229   -0.0730795834921179
Ar    3.6534588823099980    6.7618284454240243   30.4388615300772365    0.0803285163217575   -0.0650591532069493    0.0501193082541345
Ar    1.2369895496397241    9.1811733104103936   30.6068014307379457   -0.0575588704358649    0.0356825374894619   -0.0191786718880462
Ar    6.0777605824319050    6.6815845551464825   27.8830229831091998    0.0614960868495303   -0.0148848323551858    0.0162508958604426
Ar    8.9602291787511437    9.3008748610007590   27.9017885216846118    0.0088865161933446   -0.0267918781384964    0.0146873335175819
Ar    9.0440253591343769    6.5484845349113119   30.3826288346533318   -0.0186751280009286   -0.0218357786412036   -0.0081563035993776
Ar    6.5306738339751202    9.3160322520456358   30.9276387050188610   -0.0393843227156789    0.0221401563140977   -0.1089797705056122
Ar   12.0554194596510378    6.3780469342461465   27.8775243202525331   -0.0979412040547584    0.0193139592264705   -0.0122679011400538
Ar   14.1599674553788741    9.5733384270615485   28.0955491035009821    0.0748358020843323   -0.0708115919472873   -0.1249032848721335
Ar   14.7232826512825099    6.6748200290405251   30.1294887975224590   -0.0311730341693922   -0.0242148567028258    0.0006862110097442
Ar   11.7239006254444629    8.9254977958557831   30.2928296869042342   -0.0667943470884897    0.0691182858276056    0.0544132597041792
Ar   17.4113530509781249    6.6587148815770565   27.6232548975881045   -0.0509605189619032   -0.0345556095917878    0.0279587008675960
Ar   19.7493091683612505    9.2864093545370796   27.9739976768817762    0.0264640306930826   -0.0365401619773988   -0.0480758169798357
Ar   19.6686728431827760    6.3537812246050249   30.7091676058827829    0.0024077499100585   -0.0159348222090572   -0.0561930445591574
Ar   17.0673140145846354    9.3875554812980173   30.3384656956879937   -0.0104731780713051    0.0056524460486396    0.0010381533388985
Ar    0.9989336352409657    1.1617115244974525   33.0624535695728525    0.1827309253510964   -0.1294730705178088   -0.0535746406753286
Ar    3.8071244469702719    3.5790952000672522   32.8015866371501801   -0.0347779455763837    0.1214759240607629    0.0628239534328667
Ar    3.5892241278420771    1.3180376060128884   35.5460371586491348    0.0217181327837418   -0.0324796999713867    0.0457629281437648
Ar    1.2532650324137293    4.0234007992401999   35.8246512540012247    0.0285844622249494    0.0129259811044878   -0.0306599487014655
Ar    6.4214889462317419    1.4182678242578999   33.2894160477685475    0.0463416774628075   -0.0847087973389162   -0.0899600612834993
Ar    9.2233385775991223    3.9028138159344619   32.9467830321651292   -0.0198065898154508    0.0070801185550764   -0.0119710915945255
Ar    9.2195518782510799    1.5028471520056601   35.6327750348782004   -0.0382003439403581   -0.0645761466443451    0.0253568735420998
Ar    6.3114652072384478    3.8152517030938475   35.6411388414810730    0.0235854007576853    0.0629613747875723    0.0268343389227282
Ar   11.8819535297152044    1.0817805488637280   32.9058768901817018   -0.0310682592899006    0.0584504001503362    0.0396139843311817
Ar   14.6868291941986620    3.6935254084687927   32.7639682985700560   -0.1305754941911584    0.0165256403438208    0.0931267200399952
Ar   14.5152993806112587    1.0039384195042922   35.9025860717101608   -0.0212027177633069    0.0577970213309431   -0.0862130077405352
Ar   11.8674408672872147    3.5946683076855663   35.5070389623083855    0.0523020863841483    0.0637324960684059   -0.0087290054618798
Ar   17.3196624700918491    1.0501405709317466   32.8389077420586304   -0.0384810818224448    0.0506765072981786    0.0674977516990660
Ar   19.9827967334989935    3.5319384960717466   33.2754510389265974   -0.1573843247994524    0.2831256544127704   -0.1744921925501457
Ar   19.7788378896575914    1.4622094253555389   35.7331366644504840   -0.0861195180367573   -0.1551837945494871    0.0599731599531247
Ar   16.8492265419352805    3.7977148714325106   35.5009902676115061    0.0328226831962467   -0.0008419796351800    0.0034429780166602
Ar    1.2464244515152569    6.5562961797163055   33.0393799299427400    0.0089219825599294   -0.0246817252375252    0.0450271691006361
Ar    3.7696041749693587    9.3639968235030828   33.1889199491165741   -0.0065955421385486   -0.0475821106823393    0.0141415875010333
Ar    3.9099118805037345    6.4127166004439511   35.7475568504853385   -0.0430365784599574    0.0343109189993207   -0.0183858759060765
Ar    1.0096147237955337    9.0089749175360883   35.9271313659930556    0.0298640396941346   -0.0412191980788349   -0.0508722817976935
Ar    6.4375796418844571    6.5869421099791490   33.1891673425014488   -0.0057699085363678   -0.0369325101014232   -0.0102782190552586
Ar    9.0302892750118442    9.1627965626027201   33.1964324969707008    0.0767403549645048    0.0030335046611663    0.0405798774971200
Ar    9.2189053533519960    6.3127302946829378   35.6944399860745349   -0.0224258302312881    0.0555430286896456   -0.0661115629549335
Ar    6.4538268777173995    9.3619498983600931   35.8283208861144544    0.0024061521952832   -0.0624748729473474   -0.0271360914539241
Ar   11.9174013574091511    6.5160872751732599   32.7904793590604484   -0.0283419097427710   -0.0396230244726999    0.0149667626266623
Ar   14.3330359257951478    9.2333956578862679   32.8421087018687743   -0.0090753478032959   -0.0098509818899486   -0.0424405571690622
Ar   14.2174632706929227    6.4165211433879845   35.4164568176056775    0.0095583319802113   -0.0149961909294979    0.0324867383127682
Ar   11.8059970112108683    9.1233949794462301   35.9730506520345017   -0.0284891988129643    0.0369186621992099   -0.1050351992795533
Ar   16.7585345343891312    6.4286715864166162   32.8439963739447123    0.0687413664703252    0.0387115206753045    0.0417969531043357